
     Program PWSCF v.7.3.1 starts on 17Jan2025 at 10:14:34 

     This program is part of the open-source Quantum ESPRESSO suite
     for quantum simulation of materials; please cite
         "P. Giannozzi et al., J. Phys.:Condens. Matter 21 395502 (2009);
         "P. Giannozzi et al., J. Phys.:Condens. Matter 29 465901 (2017);
         "P. Giannozzi et al., J. Chem. Phys. 152 154105 (2020);
          URL http://www.quantum-espresso.org", 
     in publications or presentations arising from this work. More details at
     http://www.quantum-espresso.org/quote

     Parallel version (MPI), running on    36 processors

     MPI processes distributed on     1 nodes
     183472 MiB available memory on the printing compute node when the environment starts
 
     Reading input from espresso.pwi
Warning: card   &CELL ignored
Warning: card      CELL_DOFREE = 'IBRAV' ignored
Warning: card / ignored

     Current dimensions of program PWSCF are:
     Max number of different atomic species (ntypx) = 10
     Max number of k-points (npk) =  40000
     Max angular momentum in pseudopotentials (lmaxx) =  4

     IMPORTANT: XC functional enforced from input :
     Exchange-correlation= RVV10
                           (   1   4  13   4  26   0   0)
     Any further DFT definition will be discarded
     Please, verify this is what you really want


     gamma-point specific algorithms are used
     Message from routine setup:
     using ibrav=0 with symmetry is DISCOURAGED, use correct ibrav instead
 
     R & G space division:  proc/nbgrp/npool/nimage =      36
     Subspace diagonalization in iterative solution of the eigenvalue problem:
     one sub-group per band group will be used
     scalapack distributed-memory algorithm (size of sub-group:  5*  5 procs)

 
     Parallelization info
     --------------------
     sticks:   dense  smooth     PW     G-vecs:    dense   smooth      PW
     Min        1227     612    151               194140    68620    8576
     Max        1230     614    154               194152    68634    8590
     Sum       44213   22097   5513              6989249  2470567  308947
 
     Using Slab Decomposition
 

     Title: 
     calc                                                                       


     bravais-lattice index     =            0
     lattice parameter (alat)  =      34.0151  a.u.
     unit-cell volume          =   39356.2868 (a.u.)^3
     number of atoms/cell      =           56
     number of atomic types    =            2
     number of electrons       =       881.00
     number of Kohn-Sham states=          529
     kinetic-energy cutoff     =      60.0000  Ry
     charge density cutoff     =     480.0000  Ry
     scf convergence threshold =      1.0E-06
     mixing beta               =       0.2000
     number of iterations used =            8  plain     mixing
     energy convergence thresh.=      1.0E-04
     force convergence thresh. =      1.0E-03
     Exchange-correlation= RVV10
                           (   1   4  13   4  26   0   0)
     nstep                     =        10000


     celldm(1)=  34.015070  celldm(2)=   0.000000  celldm(3)=   0.000000
     celldm(4)=   0.000000  celldm(5)=   0.000000  celldm(6)=   0.000000

     crystal axes: (cart. coord. in units of alat)
               a(1) = (   1.000000   0.000000   0.000000 )  
               a(2) = (   0.000000   1.000000   0.000000 )  
               a(3) = (   0.000000   0.000000   1.000000 )  

     reciprocal axes: (cart. coord. in units 2 pi/alat)
               b(1) = (  1.000000  0.000000  0.000000 )  
               b(2) = (  0.000000  1.000000  0.000000 )  
               b(3) = (  0.000000  0.000000  1.000000 )  


     PseudoPot. # 1 for Pt read from file:
     /home/james/work/espresso/SSSP_1.3.0_PBE_efficiency/pt_pbe_v1.4.uspp.F.UPF
     MD5 check sum: f09d6de1a584b5a045c4fc126da2d0c4
     Pseudo is Ultrasoft + core correction, Zval = 16.0
     Generated by new atomic code, or converted to UPF format
     Using radial grid of  985 points,  6 beta functions with: 
                l(1) =   0
                l(2) =   0
                l(3) =   1
                l(4) =   1
                l(5) =   2
                l(6) =   2
     Q(r) pseudized with  8 coefficients,  rinner =    1.300   1.300   1.300
                                                       1.300   1.300

     PseudoPot. # 2 for H  read from file:
     /home/james/work/espresso/SSSP_1.3.0_PBE_efficiency/H.pbe-rrkjus_psl.1.0.0.UPF
     MD5 check sum: f52b6d4d1c606e5624b1dc7b2218f220
     Pseudo is Ultrasoft, Zval =  1.0
     Generated using "atomic" code by A. Dal Corso  v.5.1
     Using radial grid of  929 points,  2 beta functions with: 
                l(1) =   0
                l(2) =   0
     Q(r) pseudized with 0 coefficients 


     atomic species   valence    mass     pseudopotential
     Pt               16.00   195.08400     Pt( 1.00)
     H                 1.00     1.00800     H ( 1.00)

     Starting magnetic structure 
     atomic species   magnetization
     Pt              0.010
     H               0.020

      2 Sym. Ops. (no inversion) found


                                    s                        frac. trans.

      isym =  1     identity                                     

 cryst.   s( 1) = (     1          0          0      )
                  (     0          1          0      )
                  (     0          0          1      )

 cart.    s( 1) = (  1.0000000  0.0000000  0.0000000 )
                  (  0.0000000  1.0000000  0.0000000 )
                  (  0.0000000  0.0000000  1.0000000 )


      isym =  2     inv. 180 deg rotation - cart. axis [0,1,-1]  

 cryst.   s( 2) = (     1          0          0      )
                  (     0          0          1      )
                  (     0          1          0      )

 cart.    s( 2) = (  1.0000000  0.0000000  0.0000000 )
                  (  0.0000000  0.0000000  1.0000000 )
                  (  0.0000000  1.0000000  0.0000000 )


   Cartesian axes

     site n.     atom                  positions (alat units)
         1        Pt     tau(   1) = (  -0.2177778  -0.1088889  -0.1088889  )
         2        Pt     tau(   2) = (  -0.1088889  -0.2177778  -0.1088889  )
         3        Pt     tau(   3) = (  -0.1088889  -0.1088889  -0.2177778  )
         4        Pt     tau(   4) = (  -0.2177778  -0.2177778   0.0000000  )
         5        Pt     tau(   5) = (  -0.2177778  -0.1088889   0.1088889  )
         6        Pt     tau(   6) = (  -0.1088889  -0.2177778   0.1088889  )
         7        Pt     tau(   7) = (  -0.1088889  -0.1088889   0.0000000  )
         8        Pt     tau(   8) = (  -0.1088889  -0.1088889   0.2177778  )
         9        Pt     tau(   9) = (  -0.2177778   0.0000000  -0.2177778  )
        10        Pt     tau(  10) = (  -0.2177778   0.1088889  -0.1088889  )
        11        Pt     tau(  11) = (  -0.1088889   0.0000000  -0.1088889  )
        12        Pt     tau(  12) = (  -0.1088889   0.1088889  -0.2177778  )
        13        Pt     tau(  13) = (  -0.2177778   0.0000000   0.0000000  )
        14        Pt     tau(  14) = (  -0.2177778   0.1088889   0.1088889  )
        15        Pt     tau(  15) = (  -0.1088889   0.0000000   0.1088889  )
        16        Pt     tau(  16) = (  -0.1088889   0.1088889   0.0000000  )
        17        Pt     tau(  17) = (  -0.2177778   0.0000000   0.2177778  )
        18        Pt     tau(  18) = (  -0.1088889   0.1088889   0.2177778  )
        19        Pt     tau(  19) = (  -0.1088889   0.2177778  -0.1088889  )
        20        Pt     tau(  20) = (  -0.2177778   0.2177778   0.0000000  )
        21        Pt     tau(  21) = (  -0.1088889   0.2177778   0.1088889  )
        22        Pt     tau(  22) = (   0.0000000  -0.2177778  -0.2177778  )
        23        Pt     tau(  23) = (   0.0000000  -0.1088889  -0.1088889  )
        24        Pt     tau(  24) = (   0.1088889  -0.2177778  -0.1088889  )
        25        Pt     tau(  25) = (   0.1088889  -0.1088889  -0.2177778  )
        26        Pt     tau(  26) = (   0.0000000  -0.2177778   0.0000000  )
        27        Pt     tau(  27) = (   0.0000000  -0.1088889   0.1088889  )
        28        Pt     tau(  28) = (   0.1088889  -0.2177778   0.1088889  )
        29        Pt     tau(  29) = (   0.1088889  -0.1088889   0.0000000  )
        30        Pt     tau(  30) = (   0.0000000  -0.2177778   0.2177778  )
        31        Pt     tau(  31) = (   0.1088889  -0.1088889   0.2177778  )
        32        Pt     tau(  32) = (   0.0000000   0.0000000  -0.2177778  )
        33        Pt     tau(  33) = (   0.0000000   0.1088889  -0.1088889  )
        34        Pt     tau(  34) = (   0.1088889   0.0000000  -0.1088889  )
        35        Pt     tau(  35) = (   0.1088889   0.1088889  -0.2177778  )
        36        Pt     tau(  36) = (   0.0000000   0.0000000   0.0000000  )
        37        Pt     tau(  37) = (   0.0000000   0.1088889   0.1088889  )
        38        Pt     tau(  38) = (   0.1088889   0.0000000   0.1088889  )
        39        Pt     tau(  39) = (   0.1088889   0.1088889   0.0000000  )
        40        Pt     tau(  40) = (   0.0000000   0.0000000   0.2177778  )
        41        Pt     tau(  41) = (   0.1088889   0.1088889   0.2177778  )
        42        Pt     tau(  42) = (   0.0000000   0.2177778  -0.2177778  )
        43        Pt     tau(  43) = (   0.1088889   0.2177778  -0.1088889  )
        44        Pt     tau(  44) = (   0.0000000   0.2177778   0.0000000  )
        45        Pt     tau(  45) = (   0.1088889   0.2177778   0.1088889  )
        46        Pt     tau(  46) = (   0.0000000   0.2177778   0.2177778  )
        47        Pt     tau(  47) = (   0.2177778  -0.1088889  -0.1088889  )
        48        Pt     tau(  48) = (   0.2177778  -0.2177778   0.0000000  )
        49        Pt     tau(  49) = (   0.2177778  -0.1088889   0.1088889  )
        50        Pt     tau(  50) = (   0.2177778   0.0000000  -0.2177778  )
        51        Pt     tau(  51) = (   0.2177778   0.1088889  -0.1088889  )
        52        Pt     tau(  52) = (   0.2177778   0.0000000   0.0000000  )
        53        Pt     tau(  53) = (   0.2177778   0.1088889   0.1088889  )
        54        Pt     tau(  54) = (   0.2177778   0.0000000   0.2177778  )
        55        Pt     tau(  55) = (   0.2177778   0.2177778   0.0000000  )
        56        H      tau(  56) = (  -0.3013792  -0.1476884  -0.1476884  )

   Crystallographic axes

     site n.     atom                  positions (cryst. coord.)
         1        Pt     tau(   1) = ( -0.2177778 -0.1088889 -0.1088889  )
         2        Pt     tau(   2) = ( -0.1088889 -0.2177778 -0.1088889  )
         3        Pt     tau(   3) = ( -0.1088889 -0.1088889 -0.2177778  )
         4        Pt     tau(   4) = ( -0.2177778 -0.2177778  0.0000000  )
         5        Pt     tau(   5) = ( -0.2177778 -0.1088889  0.1088889  )
         6        Pt     tau(   6) = ( -0.1088889 -0.2177778  0.1088889  )
         7        Pt     tau(   7) = ( -0.1088889 -0.1088889  0.0000000  )
         8        Pt     tau(   8) = ( -0.1088889 -0.1088889  0.2177778  )
         9        Pt     tau(   9) = ( -0.2177778  0.0000000 -0.2177778  )
        10        Pt     tau(  10) = ( -0.2177778  0.1088889 -0.1088889  )
        11        Pt     tau(  11) = ( -0.1088889  0.0000000 -0.1088889  )
        12        Pt     tau(  12) = ( -0.1088889  0.1088889 -0.2177778  )
        13        Pt     tau(  13) = ( -0.2177778  0.0000000  0.0000000  )
        14        Pt     tau(  14) = ( -0.2177778  0.1088889  0.1088889  )
        15        Pt     tau(  15) = ( -0.1088889  0.0000000  0.1088889  )
        16        Pt     tau(  16) = ( -0.1088889  0.1088889  0.0000000  )
        17        Pt     tau(  17) = ( -0.2177778  0.0000000  0.2177778  )
        18        Pt     tau(  18) = ( -0.1088889  0.1088889  0.2177778  )
        19        Pt     tau(  19) = ( -0.1088889  0.2177778 -0.1088889  )
        20        Pt     tau(  20) = ( -0.2177778  0.2177778  0.0000000  )
        21        Pt     tau(  21) = ( -0.1088889  0.2177778  0.1088889  )
        22        Pt     tau(  22) = (  0.0000000 -0.2177778 -0.2177778  )
        23        Pt     tau(  23) = (  0.0000000 -0.1088889 -0.1088889  )
        24        Pt     tau(  24) = (  0.1088889 -0.2177778 -0.1088889  )
        25        Pt     tau(  25) = (  0.1088889 -0.1088889 -0.2177778  )
        26        Pt     tau(  26) = (  0.0000000 -0.2177778  0.0000000  )
        27        Pt     tau(  27) = (  0.0000000 -0.1088889  0.1088889  )
        28        Pt     tau(  28) = (  0.1088889 -0.2177778  0.1088889  )
        29        Pt     tau(  29) = (  0.1088889 -0.1088889  0.0000000  )
        30        Pt     tau(  30) = (  0.0000000 -0.2177778  0.2177778  )
        31        Pt     tau(  31) = (  0.1088889 -0.1088889  0.2177778  )
        32        Pt     tau(  32) = (  0.0000000  0.0000000 -0.2177778  )
        33        Pt     tau(  33) = (  0.0000000  0.1088889 -0.1088889  )
        34        Pt     tau(  34) = (  0.1088889  0.0000000 -0.1088889  )
        35        Pt     tau(  35) = (  0.1088889  0.1088889 -0.2177778  )
        36        Pt     tau(  36) = (  0.0000000  0.0000000  0.0000000  )
        37        Pt     tau(  37) = (  0.0000000  0.1088889  0.1088889  )
        38        Pt     tau(  38) = (  0.1088889  0.0000000  0.1088889  )
        39        Pt     tau(  39) = (  0.1088889  0.1088889  0.0000000  )
        40        Pt     tau(  40) = (  0.0000000  0.0000000  0.2177778  )
        41        Pt     tau(  41) = (  0.1088889  0.1088889  0.2177778  )
        42        Pt     tau(  42) = (  0.0000000  0.2177778 -0.2177778  )
        43        Pt     tau(  43) = (  0.1088889  0.2177778 -0.1088889  )
        44        Pt     tau(  44) = (  0.0000000  0.2177778  0.0000000  )
        45        Pt     tau(  45) = (  0.1088889  0.2177778  0.1088889  )
        46        Pt     tau(  46) = (  0.0000000  0.2177778  0.2177778  )
        47        Pt     tau(  47) = (  0.2177778 -0.1088889 -0.1088889  )
        48        Pt     tau(  48) = (  0.2177778 -0.2177778  0.0000000  )
        49        Pt     tau(  49) = (  0.2177778 -0.1088889  0.1088889  )
        50        Pt     tau(  50) = (  0.2177778  0.0000000 -0.2177778  )
        51        Pt     tau(  51) = (  0.2177778  0.1088889 -0.1088889  )
        52        Pt     tau(  52) = (  0.2177778  0.0000000  0.0000000  )
        53        Pt     tau(  53) = (  0.2177778  0.1088889  0.1088889  )
        54        Pt     tau(  54) = (  0.2177778  0.0000000  0.2177778  )
        55        Pt     tau(  55) = (  0.2177778  0.2177778  0.0000000  )
        56        H      tau(  56) = ( -0.3013792 -0.1476884 -0.1476884  )

     number of k points=     1  Gaussian smearing, width (Ry)=  0.0100
                       cart. coord. in units 2pi/alat
        k(    1) = (   0.0000000   0.0000000   0.0000000), wk =   1.0000000

                       cryst. coord.
        k(    1) = (   0.0000000   0.0000000   0.0000000), wk =   1.0000000

     Dense  grid:  3494625 G-vectors     FFT dimensions: ( 240, 240, 240)

     Smooth grid:  1235284 G-vectors     FFT dimensions: ( 180, 180, 180)

     Dynamical RAM for                 wfc:      34.63 MB

     Dynamical RAM for     wfc (w. buffer):     103.89 MB

     Dynamical RAM for           str. fact:       2.96 MB

     Dynamical RAM for           local pot:       0.00 MB

     Dynamical RAM for          nlocal pot:      64.94 MB

     Dynamical RAM for                qrad:       3.52 MB

     Dynamical RAM for          rho,v,vnew:      27.34 MB

     Dynamical RAM for               rhoin:       9.11 MB

     Dynamical RAM for            rho*nmix:      47.40 MB

     Dynamical RAM for           G-vectors:       5.82 MB

     Dynamical RAM for          h,s,v(r/c):       0.25 MB

     Dynamical RAM for          <psi|beta>:       4.00 MB

     Dynamical RAM for      wfcinit/wfcrot:      75.67 MB

     Dynamical RAM for           addusdens:     358.47 MB

     Dynamical RAM for          addusforce:     518.87 MB

     Estimated static dynamical RAM per process >     240.48 MB

     Estimated max dynamical RAM per process >     806.75 MB

     Estimated total dynamical RAM >      28.36 GB

     Atomic positions and unit cell read from directory:
     ./out/calc.save/
     Atomic positions from file used, from input discarded
 
     Generating pointlists ...
     new r_m :   0.0363 (alat units)  1.2342 (a.u.) for type    1
     new r_m :   0.0363 (alat units)  1.2342 (a.u.) for type    2

     The initial density is read from file :
     ./out/calc.save/charge-density


     negative rho (up, down):  4.870E+00 4.839E+00


---------------------------------------------------------------------------------
Carrying out rVV10 run using the following parameters:
Nqs =      20    Nr_points =    1024   r_max =   100.000
b_value =  6.30000    beta =  0.00901
     q_mesh =  0.00010000  0.00030000  0.00058939  0.00100810
               0.00161396  0.00249058  0.00375900  0.00559430
               0.00824984  0.01209221  0.01765183  0.02569619
               0.03733578  0.05417739  0.07854596  0.11380545
               0.16482331  0.23864234  0.34545298  0.50000000

Gradients computed in Reciprocal space

---------------------------------------------------------------------------------




     ----------------------------------------------------------------

     Non-local correlation energy =              9.230272135151978

     ----------------------------------------------------------------

     Cannot read wfcs: file not found
     Starting wfcs are  661 randomized atomic wfcs

     total cpu time spent up to now is       18.1 secs

     Self-consistent Calculation

     iteration #  1     ecut=    60.00 Ry     beta= 0.20
     CG style diagonalization

---- Real-time Memory Report at c_bands before calling an iterative solver
             0 MiB given to the printing process from OS
             0 MiB allocation reported by mallinfo(arena+hblkhd)
        172555 MiB available memory on the node where the printing process lives
------------------
     c_bands:  5 eigenvalues not converged
     c_bands:  3 eigenvalues not converged
     ethr =  1.00E-05,  avg # of iterations = 16.8

     negative rho (up, down):  4.862E+00 4.832E+00


     ----------------------------------------------------------------

     Non-local correlation energy =              9.228035604052920

     ----------------------------------------------------------------


     total cpu time spent up to now is     1232.7 secs

     total energy              =  -11588.67214934 Ry
     estimated scf accuracy    <      28.52607705 Ry

     total magnetization       =     3.48 Bohr mag/cell
     absolute magnetization    =     3.80 Bohr mag/cell

     iteration #  2     ecut=    60.00 Ry     beta= 0.20
     CG style diagonalization

---- Real-time Memory Report at c_bands before calling an iterative solver
             0 MiB given to the printing process from OS
             0 MiB allocation reported by mallinfo(arena+hblkhd)
        170913 MiB available memory on the node where the printing process lives
------------------
     ethr =  3.24E-03,  avg # of iterations =  3.0

     negative rho (up, down):  4.857E+00 4.828E+00


     ----------------------------------------------------------------

     Non-local correlation energy =              9.225914976098897

     ----------------------------------------------------------------


     total cpu time spent up to now is     1412.5 secs

     total energy              =  -11587.37836527 Ry
     estimated scf accuracy    <      71.50512076 Ry

     total magnetization       =     2.03 Bohr mag/cell
     absolute magnetization    =     2.31 Bohr mag/cell

     iteration #  3     ecut=    60.00 Ry     beta= 0.20
     CG style diagonalization

---- Real-time Memory Report at c_bands before calling an iterative solver
             0 MiB given to the printing process from OS
             0 MiB allocation reported by mallinfo(arena+hblkhd)
        170797 MiB available memory on the node where the printing process lives
------------------
     ethr =  3.24E-03,  avg # of iterations =  3.0

     negative rho (up, down):  4.855E+00 4.826E+00


     ----------------------------------------------------------------

     Non-local correlation energy =              9.224758784882102

     ----------------------------------------------------------------


     total cpu time spent up to now is     1589.1 secs

     total energy              =  -11589.11255343 Ry
     estimated scf accuracy    <      92.92989523 Ry

     total magnetization       =     2.08 Bohr mag/cell
     absolute magnetization    =     2.39 Bohr mag/cell

     iteration #  4     ecut=    60.00 Ry     beta= 0.20
     CG style diagonalization

---- Real-time Memory Report at c_bands before calling an iterative solver
             0 MiB given to the printing process from OS
             0 MiB allocation reported by mallinfo(arena+hblkhd)
        170694 MiB available memory on the node where the printing process lives
------------------
     ethr =  3.24E-03,  avg # of iterations =  3.0

     negative rho (up, down):  4.854E+00 4.826E+00


     ----------------------------------------------------------------

     Non-local correlation energy =              9.223707984878992

     ----------------------------------------------------------------


     total cpu time spent up to now is     1765.5 secs

     total energy              =  -11590.28757115 Ry
     estimated scf accuracy    <      53.98905215 Ry

     total magnetization       =     3.00 Bohr mag/cell
     absolute magnetization    =     3.28 Bohr mag/cell

     iteration #  5     ecut=    60.00 Ry     beta= 0.20
     CG style diagonalization

---- Real-time Memory Report at c_bands before calling an iterative solver
             0 MiB given to the printing process from OS
             0 MiB allocation reported by mallinfo(arena+hblkhd)
        170597 MiB available memory on the node where the printing process lives
------------------
     ethr =  3.24E-03,  avg # of iterations =  3.0

     negative rho (up, down):  4.853E+00 4.827E+00


     ----------------------------------------------------------------

     Non-local correlation energy =              9.223333539933005

     ----------------------------------------------------------------


     total cpu time spent up to now is     1941.9 secs

     total energy              =  -11590.91406891 Ry
     estimated scf accuracy    <      13.73132330 Ry

     total magnetization       =     2.91 Bohr mag/cell
     absolute magnetization    =     3.19 Bohr mag/cell

     iteration #  6     ecut=    60.00 Ry     beta= 0.20
     CG style diagonalization

---- Real-time Memory Report at c_bands before calling an iterative solver
             0 MiB given to the printing process from OS
             0 MiB allocation reported by mallinfo(arena+hblkhd)
        170499 MiB available memory on the node where the printing process lives
------------------
     ethr =  1.56E-03,  avg # of iterations =  3.0

     negative rho (up, down):  4.853E+00 4.828E+00


     ----------------------------------------------------------------

     Non-local correlation energy =              9.223013743689219

     ----------------------------------------------------------------


     total cpu time spent up to now is     2118.9 secs

     total energy              =  -11590.49898608 Ry
     estimated scf accuracy    <      40.30073315 Ry

     total magnetization       =     2.20 Bohr mag/cell
     absolute magnetization    =     2.50 Bohr mag/cell

     iteration #  7     ecut=    60.00 Ry     beta= 0.20
     CG style diagonalization

---- Real-time Memory Report at c_bands before calling an iterative solver
             0 MiB given to the printing process from OS
             0 MiB allocation reported by mallinfo(arena+hblkhd)
        170399 MiB available memory on the node where the printing process lives
------------------
     ethr =  1.56E-03,  avg # of iterations =  3.0

     negative rho (up, down):  4.854E+00 4.829E+00


     ----------------------------------------------------------------

     Non-local correlation energy =              9.222699241743804

     ----------------------------------------------------------------


     total cpu time spent up to now is     2295.3 secs

     total energy              =  -11590.88829537 Ry
     estimated scf accuracy    <      19.11611227 Ry

     total magnetization       =     2.98 Bohr mag/cell
     absolute magnetization    =     3.23 Bohr mag/cell

     iteration #  8     ecut=    60.00 Ry     beta= 0.20
     CG style diagonalization

---- Real-time Memory Report at c_bands before calling an iterative solver
             0 MiB given to the printing process from OS
             0 MiB allocation reported by mallinfo(arena+hblkhd)
        170308 MiB available memory on the node where the printing process lives
------------------
     ethr =  1.56E-03,  avg # of iterations =  3.0

     negative rho (up, down):  4.854E+00 4.830E+00


     ----------------------------------------------------------------

     Non-local correlation energy =              9.222660025744039

     ----------------------------------------------------------------


     total cpu time spent up to now is     2471.7 secs

     total energy              =  -11591.37116074 Ry
     estimated scf accuracy    <       3.59862771 Ry

     total magnetization       =     3.09 Bohr mag/cell
     absolute magnetization    =     3.32 Bohr mag/cell

     iteration #  9     ecut=    60.00 Ry     beta= 0.20
     CG style diagonalization

---- Real-time Memory Report at c_bands before calling an iterative solver
             0 MiB given to the printing process from OS
             0 MiB allocation reported by mallinfo(arena+hblkhd)
        170198 MiB available memory on the node where the printing process lives
------------------
     ethr =  4.08E-04,  avg # of iterations =  3.0

     negative rho (up, down):  4.855E+00 4.832E+00


     ----------------------------------------------------------------

     Non-local correlation energy =              9.222785610247140

     ----------------------------------------------------------------


     total cpu time spent up to now is     2648.1 secs

     total energy              =  -11591.41584567 Ry
     estimated scf accuracy    <       2.44910142 Ry

     total magnetization       =     3.05 Bohr mag/cell
     absolute magnetization    =     3.28 Bohr mag/cell

     iteration # 10     ecut=    60.00 Ry     beta= 0.20
     CG style diagonalization

---- Real-time Memory Report at c_bands before calling an iterative solver
             0 MiB given to the printing process from OS
             0 MiB allocation reported by mallinfo(arena+hblkhd)
        170117 MiB available memory on the node where the printing process lives
------------------
     ethr =  2.78E-04,  avg # of iterations =  3.0

     negative rho (up, down):  4.857E+00 4.833E+00


     ----------------------------------------------------------------

     Non-local correlation energy =              9.223204996150676

     ----------------------------------------------------------------


     total cpu time spent up to now is     2825.4 secs

     total energy              =  -11591.44501433 Ry
     estimated scf accuracy    <       1.39346768 Ry

     total magnetization       =     3.12 Bohr mag/cell
     absolute magnetization    =     3.34 Bohr mag/cell

     iteration # 11     ecut=    60.00 Ry     beta= 0.20
     CG style diagonalization

---- Real-time Memory Report at c_bands before calling an iterative solver
             0 MiB given to the printing process from OS
             0 MiB allocation reported by mallinfo(arena+hblkhd)
        170112 MiB available memory on the node where the printing process lives
------------------
     ethr =  1.58E-04,  avg # of iterations =  3.0

     negative rho (up, down):  4.858E+00 4.834E+00


     ----------------------------------------------------------------

     Non-local correlation energy =              9.223245065098119

     ----------------------------------------------------------------


     total cpu time spent up to now is     3003.1 secs

     total energy              =  -11591.34819657 Ry
     estimated scf accuracy    <       9.73259879 Ry

     total magnetization       =     2.92 Bohr mag/cell
     absolute magnetization    =     3.15 Bohr mag/cell

     iteration # 12     ecut=    60.00 Ry     beta= 0.20
     CG style diagonalization

---- Real-time Memory Report at c_bands before calling an iterative solver
             0 MiB given to the printing process from OS
             0 MiB allocation reported by mallinfo(arena+hblkhd)
        170122 MiB available memory on the node where the printing process lives
------------------
     ethr =  1.58E-04,  avg # of iterations =  3.0

     negative rho (up, down):  4.859E+00 4.836E+00


     ----------------------------------------------------------------

     Non-local correlation energy =              9.223429895914451

     ----------------------------------------------------------------


     total cpu time spent up to now is     3179.6 secs

     total energy              =  -11591.47433117 Ry
     estimated scf accuracy    <       0.45299404 Ry

     total magnetization       =     3.20 Bohr mag/cell
     absolute magnetization    =     3.42 Bohr mag/cell

     iteration # 13     ecut=    60.00 Ry     beta= 0.20
     CG style diagonalization

---- Real-time Memory Report at c_bands before calling an iterative solver
             0 MiB given to the printing process from OS
             0 MiB allocation reported by mallinfo(arena+hblkhd)
        170113 MiB available memory on the node where the printing process lives
------------------
     ethr =  5.14E-05,  avg # of iterations =  3.1

     negative rho (up, down):  4.861E+00 4.838E+00


     ----------------------------------------------------------------

     Non-local correlation energy =              9.223688493574485

     ----------------------------------------------------------------


     total cpu time spent up to now is     3360.7 secs

     total energy              =  -11591.47261356 Ry
     estimated scf accuracy    <       0.30807726 Ry

     total magnetization       =     3.15 Bohr mag/cell
     absolute magnetization    =     3.37 Bohr mag/cell

     iteration # 14     ecut=    60.00 Ry     beta= 0.20
     CG style diagonalization

---- Real-time Memory Report at c_bands before calling an iterative solver
             0 MiB given to the printing process from OS
             0 MiB allocation reported by mallinfo(arena+hblkhd)
        170111 MiB available memory on the node where the printing process lives
------------------
     ethr =  3.50E-05,  avg # of iterations =  3.0

     negative rho (up, down):  4.864E+00 4.841E+00


     ----------------------------------------------------------------

     Non-local correlation energy =              9.224093623342203

     ----------------------------------------------------------------


     total cpu time spent up to now is     3537.6 secs

     total energy              =  -11591.46090669 Ry
     estimated scf accuracy    <       0.52566302 Ry

     total magnetization       =     3.12 Bohr mag/cell
     absolute magnetization    =     3.34 Bohr mag/cell

     iteration # 15     ecut=    60.00 Ry     beta= 0.20
     CG style diagonalization

---- Real-time Memory Report at c_bands before calling an iterative solver
             0 MiB given to the printing process from OS
             0 MiB allocation reported by mallinfo(arena+hblkhd)
        170097 MiB available memory on the node where the printing process lives
------------------
     ethr =  3.50E-05,  avg # of iterations =  3.0

     negative rho (up, down):  4.865E+00 4.842E+00


     ----------------------------------------------------------------

     Non-local correlation energy =              9.224142939744942

     ----------------------------------------------------------------


     total cpu time spent up to now is     3714.0 secs

     total energy              =  -11591.45805330 Ry
     estimated scf accuracy    <       0.85396041 Ry

     total magnetization       =     3.18 Bohr mag/cell
     absolute magnetization    =     3.39 Bohr mag/cell

     iteration # 16     ecut=    60.00 Ry     beta= 0.20
     CG style diagonalization

---- Real-time Memory Report at c_bands before calling an iterative solver
             0 MiB given to the printing process from OS
             0 MiB allocation reported by mallinfo(arena+hblkhd)
        170112 MiB available memory on the node where the printing process lives
------------------
     ethr =  3.50E-05,  avg # of iterations =  3.0

     negative rho (up, down):  4.867E+00 4.844E+00


     ----------------------------------------------------------------

     Non-local correlation energy =              9.224375327638345

     ----------------------------------------------------------------


     total cpu time spent up to now is     3890.4 secs

     total energy              =  -11591.45853292 Ry
     estimated scf accuracy    <       0.64893973 Ry

     total magnetization       =     3.17 Bohr mag/cell
     absolute magnetization    =     3.39 Bohr mag/cell

     iteration # 17     ecut=    60.00 Ry     beta= 0.20
     CG style diagonalization

---- Real-time Memory Report at c_bands before calling an iterative solver
             0 MiB given to the printing process from OS
             0 MiB allocation reported by mallinfo(arena+hblkhd)
        170109 MiB available memory on the node where the printing process lives
------------------
     ethr =  3.50E-05,  avg # of iterations =  3.0

     negative rho (up, down):  4.871E+00 4.848E+00


     ----------------------------------------------------------------

     Non-local correlation energy =              9.224720070277007

     ----------------------------------------------------------------


     total cpu time spent up to now is     4066.8 secs

     total energy              =  -11591.45676966 Ry
     estimated scf accuracy    <       0.70769104 Ry

     total magnetization       =     3.11 Bohr mag/cell
     absolute magnetization    =     3.32 Bohr mag/cell

     iteration # 18     ecut=    60.00 Ry     beta= 0.20
     CG style diagonalization

---- Real-time Memory Report at c_bands before calling an iterative solver
             0 MiB given to the printing process from OS
             0 MiB allocation reported by mallinfo(arena+hblkhd)
        170104 MiB available memory on the node where the printing process lives
------------------
     ethr =  3.50E-05,  avg # of iterations =  3.0

     negative rho (up, down):  4.871E+00 4.848E+00


     ----------------------------------------------------------------

     Non-local correlation energy =              9.224632432515804

     ----------------------------------------------------------------


     total cpu time spent up to now is     4243.3 secs

     total energy              =  -11591.46821597 Ry
     estimated scf accuracy    <       0.04070126 Ry

     total magnetization       =     3.16 Bohr mag/cell
     absolute magnetization    =     3.37 Bohr mag/cell

     iteration # 19     ecut=    60.00 Ry     beta= 0.20
     CG style diagonalization

---- Real-time Memory Report at c_bands before calling an iterative solver
             0 MiB given to the printing process from OS
             0 MiB allocation reported by mallinfo(arena+hblkhd)
        170104 MiB available memory on the node where the printing process lives
------------------
     c_bands:  1 eigenvalues not converged
     ethr =  4.62E-06,  avg # of iterations =  3.1

     negative rho (up, down):  4.873E+00 4.851E+00


     ----------------------------------------------------------------

     Non-local correlation energy =              9.224823069302921

     ----------------------------------------------------------------


     total cpu time spent up to now is     4430.3 secs

     total energy              =  -11591.46582215 Ry
     estimated scf accuracy    <       0.11215406 Ry

     total magnetization       =     3.15 Bohr mag/cell
     absolute magnetization    =     3.36 Bohr mag/cell

     iteration # 20     ecut=    60.00 Ry     beta= 0.20
     CG style diagonalization

---- Real-time Memory Report at c_bands before calling an iterative solver
             0 MiB given to the printing process from OS
             0 MiB allocation reported by mallinfo(arena+hblkhd)
        170100 MiB available memory on the node where the printing process lives
------------------
     ethr =  4.62E-06,  avg # of iterations =  3.0

     negative rho (up, down):  4.874E+00 4.852E+00


     ----------------------------------------------------------------

     Non-local correlation energy =              9.224890824055400

     ----------------------------------------------------------------


     total cpu time spent up to now is     4607.6 secs

     total energy              =  -11591.46821790 Ry
     estimated scf accuracy    <       0.05356077 Ry

     total magnetization       =     3.13 Bohr mag/cell
     absolute magnetization    =     3.33 Bohr mag/cell

     iteration # 21     ecut=    60.00 Ry     beta= 0.20
     CG style diagonalization

---- Real-time Memory Report at c_bands before calling an iterative solver
             0 MiB given to the printing process from OS
             0 MiB allocation reported by mallinfo(arena+hblkhd)
        170097 MiB available memory on the node where the printing process lives
------------------
     ethr =  4.62E-06,  avg # of iterations =  3.0

     negative rho (up, down):  4.875E+00 4.852E+00


     ----------------------------------------------------------------

     Non-local correlation energy =              9.224914763916786

     ----------------------------------------------------------------


     total cpu time spent up to now is     4784.1 secs

     total energy              =  -11591.46797545 Ry
     estimated scf accuracy    <       0.09738073 Ry

     total magnetization       =     3.13 Bohr mag/cell
     absolute magnetization    =     3.33 Bohr mag/cell

     iteration # 22     ecut=    60.00 Ry     beta= 0.20
     CG style diagonalization

---- Real-time Memory Report at c_bands before calling an iterative solver
             0 MiB given to the printing process from OS
             0 MiB allocation reported by mallinfo(arena+hblkhd)
        170093 MiB available memory on the node where the printing process lives
------------------
     ethr =  4.62E-06,  avg # of iterations =  3.0

     negative rho (up, down):  4.874E+00 4.852E+00


     ----------------------------------------------------------------

     Non-local correlation energy =              9.224867993252410

     ----------------------------------------------------------------


     total cpu time spent up to now is     4960.4 secs

     total energy              =  -11591.46877757 Ry
     estimated scf accuracy    <       0.03331149 Ry

     total magnetization       =     3.13 Bohr mag/cell
     absolute magnetization    =     3.34 Bohr mag/cell

     iteration # 23     ecut=    60.00 Ry     beta= 0.20
     CG style diagonalization

---- Real-time Memory Report at c_bands before calling an iterative solver
             0 MiB given to the printing process from OS
             0 MiB allocation reported by mallinfo(arena+hblkhd)
        170102 MiB available memory on the node where the printing process lives
------------------
     ethr =  3.78E-06,  avg # of iterations =  3.0

     negative rho (up, down):  4.874E+00 4.852E+00


     ----------------------------------------------------------------

     Non-local correlation energy =              9.224864665950594

     ----------------------------------------------------------------


     total cpu time spent up to now is     5136.8 secs

     total energy              =  -11591.46920184 Ry
     estimated scf accuracy    <       0.01770680 Ry

     total magnetization       =     3.15 Bohr mag/cell
     absolute magnetization    =     3.36 Bohr mag/cell

     iteration # 24     ecut=    60.00 Ry     beta= 0.20
     CG style diagonalization

---- Real-time Memory Report at c_bands before calling an iterative solver
             0 MiB given to the printing process from OS
             0 MiB allocation reported by mallinfo(arena+hblkhd)
        170095 MiB available memory on the node where the printing process lives
------------------
     c_bands:  1 eigenvalues not converged
     ethr =  2.01E-06,  avg # of iterations =  3.0

     negative rho (up, down):  4.875E+00 4.853E+00


     ----------------------------------------------------------------

     Non-local correlation energy =              9.224904769251410

     ----------------------------------------------------------------


     total cpu time spent up to now is     5314.8 secs

     total energy              =  -11591.46920977 Ry
     estimated scf accuracy    <       0.02049459 Ry

     total magnetization       =     3.14 Bohr mag/cell
     absolute magnetization    =     3.35 Bohr mag/cell

     iteration # 25     ecut=    60.00 Ry     beta= 0.20
     CG style diagonalization

---- Real-time Memory Report at c_bands before calling an iterative solver
             0 MiB given to the printing process from OS
             0 MiB allocation reported by mallinfo(arena+hblkhd)
        170087 MiB available memory on the node where the printing process lives
------------------
     c_bands:  1 eigenvalues not converged
     ethr =  2.01E-06,  avg # of iterations =  3.0

     negative rho (up, down):  4.876E+00 4.854E+00


     ----------------------------------------------------------------

     Non-local correlation energy =              9.224928838130099

     ----------------------------------------------------------------


     total cpu time spent up to now is     5492.7 secs

     total energy              =  -11591.46902114 Ry
     estimated scf accuracy    <       0.02479303 Ry

     total magnetization       =     3.13 Bohr mag/cell
     absolute magnetization    =     3.33 Bohr mag/cell

     iteration # 26     ecut=    60.00 Ry     beta= 0.20
     CG style diagonalization

---- Real-time Memory Report at c_bands before calling an iterative solver
             0 MiB given to the printing process from OS
             0 MiB allocation reported by mallinfo(arena+hblkhd)
        170093 MiB available memory on the node where the printing process lives
------------------
     ethr =  2.01E-06,  avg # of iterations =  3.0

     negative rho (up, down):  4.875E+00 4.853E+00


     ----------------------------------------------------------------

     Non-local correlation energy =              9.224906944836414

     ----------------------------------------------------------------


     total cpu time spent up to now is     5669.6 secs

     total energy              =  -11591.46911287 Ry
     estimated scf accuracy    <       0.02493764 Ry

     total magnetization       =     3.13 Bohr mag/cell
     absolute magnetization    =     3.33 Bohr mag/cell

     iteration # 27     ecut=    60.00 Ry     beta= 0.20
     CG style diagonalization

---- Real-time Memory Report at c_bands before calling an iterative solver
             0 MiB given to the printing process from OS
             0 MiB allocation reported by mallinfo(arena+hblkhd)
        170089 MiB available memory on the node where the printing process lives
------------------
     ethr =  2.01E-06,  avg # of iterations =  3.0

     negative rho (up, down):  4.875E+00 4.853E+00


     ----------------------------------------------------------------

     Non-local correlation energy =              9.224909326250867

     ----------------------------------------------------------------


     total cpu time spent up to now is     5845.8 secs

     total energy              =  -11591.46943489 Ry
     estimated scf accuracy    <       0.01432578 Ry

     total magnetization       =     3.14 Bohr mag/cell
     absolute magnetization    =     3.34 Bohr mag/cell

     iteration # 28     ecut=    60.00 Ry     beta= 0.20
     CG style diagonalization

---- Real-time Memory Report at c_bands before calling an iterative solver
             0 MiB given to the printing process from OS
             0 MiB allocation reported by mallinfo(arena+hblkhd)
        170087 MiB available memory on the node where the printing process lives
------------------
     ethr =  1.63E-06,  avg # of iterations =  3.0

     negative rho (up, down):  4.876E+00 4.854E+00


     ----------------------------------------------------------------

     Non-local correlation energy =              9.224931776704075

     ----------------------------------------------------------------


     total cpu time spent up to now is     6022.2 secs

     total energy              =  -11591.46954433 Ry
     estimated scf accuracy    <       0.00236288 Ry

     total magnetization       =     3.13 Bohr mag/cell
     absolute magnetization    =     3.34 Bohr mag/cell

     iteration # 29     ecut=    60.00 Ry     beta= 0.20
     CG style diagonalization

---- Real-time Memory Report at c_bands before calling an iterative solver
             0 MiB given to the printing process from OS
             0 MiB allocation reported by mallinfo(arena+hblkhd)
        170074 MiB available memory on the node where the printing process lives
------------------
     ethr =  2.68E-07,  avg # of iterations =  3.0

     negative rho (up, down):  4.876E+00 4.854E+00


     ----------------------------------------------------------------

     Non-local correlation energy =              9.224938182838063

     ----------------------------------------------------------------


     total cpu time spent up to now is     6198.5 secs

     total energy              =  -11591.46951129 Ry
     estimated scf accuracy    <       0.00228857 Ry

     total magnetization       =     3.13 Bohr mag/cell
     absolute magnetization    =     3.34 Bohr mag/cell

     iteration # 30     ecut=    60.00 Ry     beta= 0.20
     CG style diagonalization

---- Real-time Memory Report at c_bands before calling an iterative solver
             0 MiB given to the printing process from OS
             0 MiB allocation reported by mallinfo(arena+hblkhd)
        170092 MiB available memory on the node where the printing process lives
------------------
     ethr =  2.60E-07,  avg # of iterations =  3.0

     negative rho (up, down):  4.876E+00 4.854E+00


     ----------------------------------------------------------------

     Non-local correlation energy =              9.224946359575732

     ----------------------------------------------------------------


     total cpu time spent up to now is     6374.8 secs

     total energy              =  -11591.46951753 Ry
     estimated scf accuracy    <       0.00265605 Ry

     total magnetization       =     3.14 Bohr mag/cell
     absolute magnetization    =     3.34 Bohr mag/cell

     iteration # 31     ecut=    60.00 Ry     beta= 0.20
     CG style diagonalization

---- Real-time Memory Report at c_bands before calling an iterative solver
             0 MiB given to the printing process from OS
             0 MiB allocation reported by mallinfo(arena+hblkhd)
        170095 MiB available memory on the node where the printing process lives
------------------
     ethr =  2.60E-07,  avg # of iterations =  3.0

     negative rho (up, down):  4.876E+00 4.854E+00


     ----------------------------------------------------------------

     Non-local correlation energy =              9.224955565903183

     ----------------------------------------------------------------


     total cpu time spent up to now is     6551.2 secs

     total energy              =  -11591.46949589 Ry
     estimated scf accuracy    <       0.00426081 Ry

     total magnetization       =     3.13 Bohr mag/cell
     absolute magnetization    =     3.34 Bohr mag/cell

     iteration # 32     ecut=    60.00 Ry     beta= 0.20
     CG style diagonalization

---- Real-time Memory Report at c_bands before calling an iterative solver
             0 MiB given to the printing process from OS
             0 MiB allocation reported by mallinfo(arena+hblkhd)
        170088 MiB available memory on the node where the printing process lives
------------------
     ethr =  2.60E-07,  avg # of iterations =  3.0

     negative rho (up, down):  4.877E+00 4.854E+00


     ----------------------------------------------------------------

     Non-local correlation energy =              9.224968334397506

     ----------------------------------------------------------------


     total cpu time spent up to now is     6727.4 secs

     total energy              =  -11591.46950320 Ry
     estimated scf accuracy    <       0.00227076 Ry

     total magnetization       =     3.13 Bohr mag/cell
     absolute magnetization    =     3.33 Bohr mag/cell

     iteration # 33     ecut=    60.00 Ry     beta= 0.20
     CG style diagonalization

---- Real-time Memory Report at c_bands before calling an iterative solver
             0 MiB given to the printing process from OS
             0 MiB allocation reported by mallinfo(arena+hblkhd)
        170096 MiB available memory on the node where the printing process lives
------------------
     ethr =  2.58E-07,  avg # of iterations =  3.0

     negative rho (up, down):  4.877E+00 4.854E+00


     ----------------------------------------------------------------

     Non-local correlation energy =              9.224967341724614

     ----------------------------------------------------------------


     total cpu time spent up to now is     6903.7 secs

     total energy              =  -11591.46950026 Ry
     estimated scf accuracy    <       0.00158106 Ry

     total magnetization       =     3.13 Bohr mag/cell
     absolute magnetization    =     3.33 Bohr mag/cell

     iteration # 34     ecut=    60.00 Ry     beta= 0.20
     CG style diagonalization

---- Real-time Memory Report at c_bands before calling an iterative solver
             0 MiB given to the printing process from OS
             0 MiB allocation reported by mallinfo(arena+hblkhd)
        170100 MiB available memory on the node where the printing process lives
------------------
     ethr =  1.79E-07,  avg # of iterations =  3.0

     negative rho (up, down):  4.877E+00 4.855E+00


     ----------------------------------------------------------------

     Non-local correlation energy =              9.224987085132426

     ----------------------------------------------------------------


     total cpu time spent up to now is     7080.0 secs

     total energy              =  -11591.46946977 Ry
     estimated scf accuracy    <       0.00352601 Ry

     total magnetization       =     3.13 Bohr mag/cell
     absolute magnetization    =     3.33 Bohr mag/cell

     iteration # 35     ecut=    60.00 Ry     beta= 0.20
     CG style diagonalization

---- Real-time Memory Report at c_bands before calling an iterative solver
             0 MiB given to the printing process from OS
             0 MiB allocation reported by mallinfo(arena+hblkhd)
        170097 MiB available memory on the node where the printing process lives
------------------
     ethr =  1.79E-07,  avg # of iterations =  3.0

     negative rho (up, down):  4.877E+00 4.855E+00


     ----------------------------------------------------------------

     Non-local correlation energy =              9.225000707861605

     ----------------------------------------------------------------


     total cpu time spent up to now is     7256.2 secs

     total energy              =  -11591.46949732 Ry
     estimated scf accuracy    <       0.00151917 Ry

     total magnetization       =     3.13 Bohr mag/cell
     absolute magnetization    =     3.33 Bohr mag/cell

     iteration # 36     ecut=    60.00 Ry     beta= 0.20
     CG style diagonalization

---- Real-time Memory Report at c_bands before calling an iterative solver
             0 MiB given to the printing process from OS
             0 MiB allocation reported by mallinfo(arena+hblkhd)
        170096 MiB available memory on the node where the printing process lives
------------------
     ethr =  1.72E-07,  avg # of iterations =  3.0

     negative rho (up, down):  4.877E+00 4.855E+00


     ----------------------------------------------------------------

     Non-local correlation energy =              9.224986390721032

     ----------------------------------------------------------------


     total cpu time spent up to now is     7432.5 secs

     total energy              =  -11591.46949678 Ry
     estimated scf accuracy    <       0.00147559 Ry

     total magnetization       =     3.13 Bohr mag/cell
     absolute magnetization    =     3.33 Bohr mag/cell

     iteration # 37     ecut=    60.00 Ry     beta= 0.20
     CG style diagonalization

---- Real-time Memory Report at c_bands before calling an iterative solver
             0 MiB given to the printing process from OS
             0 MiB allocation reported by mallinfo(arena+hblkhd)
        170100 MiB available memory on the node where the printing process lives
------------------
     c_bands:  1 eigenvalues not converged
     ethr =  1.67E-07,  avg # of iterations =  3.0

     negative rho (up, down):  4.877E+00 4.855E+00


     ----------------------------------------------------------------

     Non-local correlation energy =              9.224990030149847

     ----------------------------------------------------------------


     total cpu time spent up to now is     7610.7 secs

     total energy              =  -11591.46946491 Ry
     estimated scf accuracy    <       0.00486851 Ry

     total magnetization       =     3.13 Bohr mag/cell
     absolute magnetization    =     3.33 Bohr mag/cell

     iteration # 38     ecut=    60.00 Ry     beta= 0.20
     CG style diagonalization

---- Real-time Memory Report at c_bands before calling an iterative solver
             0 MiB given to the printing process from OS
             0 MiB allocation reported by mallinfo(arena+hblkhd)
        170105 MiB available memory on the node where the printing process lives
------------------
     c_bands:  2 eigenvalues not converged
     ethr =  1.67E-07,  avg # of iterations =  3.0

     negative rho (up, down):  4.877E+00 4.855E+00


     ----------------------------------------------------------------

     Non-local correlation energy =              9.225008434465082

     ----------------------------------------------------------------


     total cpu time spent up to now is     7790.1 secs

     total energy              =  -11591.46950779 Ry
     estimated scf accuracy    <       0.00079230 Ry

     total magnetization       =     3.13 Bohr mag/cell
     absolute magnetization    =     3.33 Bohr mag/cell

     iteration # 39     ecut=    60.00 Ry     beta= 0.20
     CG style diagonalization

---- Real-time Memory Report at c_bands before calling an iterative solver
             0 MiB given to the printing process from OS
             0 MiB allocation reported by mallinfo(arena+hblkhd)
        170103 MiB available memory on the node where the printing process lives
------------------
     c_bands:  1 eigenvalues not converged
     ethr =  8.99E-08,  avg # of iterations =  3.0

     negative rho (up, down):  4.877E+00 4.855E+00


     ----------------------------------------------------------------

     Non-local correlation energy =              9.225011704719398

     ----------------------------------------------------------------


     total cpu time spent up to now is     7968.5 secs

     total energy              =  -11591.46951692 Ry
     estimated scf accuracy    <       0.00030205 Ry

     total magnetization       =     3.13 Bohr mag/cell
     absolute magnetization    =     3.33 Bohr mag/cell

     iteration # 40     ecut=    60.00 Ry     beta= 0.20
     CG style diagonalization

---- Real-time Memory Report at c_bands before calling an iterative solver
             0 MiB given to the printing process from OS
             0 MiB allocation reported by mallinfo(arena+hblkhd)
        170117 MiB available memory on the node where the printing process lives
------------------
     c_bands:  1 eigenvalues not converged
     ethr =  3.43E-08,  avg # of iterations =  3.0

     negative rho (up, down):  4.877E+00 4.855E+00


     ----------------------------------------------------------------

     Non-local correlation energy =              9.225011524727250

     ----------------------------------------------------------------


     total cpu time spent up to now is     8146.2 secs

     total energy              =  -11591.46951565 Ry
     estimated scf accuracy    <       0.00048860 Ry

     total magnetization       =     3.13 Bohr mag/cell
     absolute magnetization    =     3.33 Bohr mag/cell

     iteration # 41     ecut=    60.00 Ry     beta= 0.20
     CG style diagonalization

---- Real-time Memory Report at c_bands before calling an iterative solver
             0 MiB given to the printing process from OS
             0 MiB allocation reported by mallinfo(arena+hblkhd)
        170119 MiB available memory on the node where the printing process lives
------------------
     ethr =  3.43E-08,  avg # of iterations =  3.0

     negative rho (up, down):  4.877E+00 4.855E+00


     ----------------------------------------------------------------

     Non-local correlation energy =              9.225014471180398

     ----------------------------------------------------------------


     total cpu time spent up to now is     8322.2 secs

     total energy              =  -11591.46951626 Ry
     estimated scf accuracy    <       0.00067071 Ry

     total magnetization       =     3.13 Bohr mag/cell
     absolute magnetization    =     3.33 Bohr mag/cell

     iteration # 42     ecut=    60.00 Ry     beta= 0.20
     CG style diagonalization

---- Real-time Memory Report at c_bands before calling an iterative solver
             0 MiB given to the printing process from OS
             0 MiB allocation reported by mallinfo(arena+hblkhd)
        170114 MiB available memory on the node where the printing process lives
------------------
     ethr =  3.43E-08,  avg # of iterations =  3.0

     negative rho (up, down):  4.877E+00 4.855E+00


     ----------------------------------------------------------------

     Non-local correlation energy =              9.225020204056841

     ----------------------------------------------------------------


     total cpu time spent up to now is     8498.4 secs

     total energy              =  -11591.46952050 Ry
     estimated scf accuracy    <       0.00027814 Ry

     total magnetization       =     3.13 Bohr mag/cell
     absolute magnetization    =     3.33 Bohr mag/cell

     iteration # 43     ecut=    60.00 Ry     beta= 0.20
     CG style diagonalization

---- Real-time Memory Report at c_bands before calling an iterative solver
             0 MiB given to the printing process from OS
             0 MiB allocation reported by mallinfo(arena+hblkhd)
        170116 MiB available memory on the node where the printing process lives
------------------
     ethr =  3.16E-08,  avg # of iterations =  3.0

     negative rho (up, down):  4.877E+00 4.855E+00


     ----------------------------------------------------------------

     Non-local correlation energy =              9.225022120641677

     ----------------------------------------------------------------


     total cpu time spent up to now is     8674.5 secs

     total energy              =  -11591.46951995 Ry
     estimated scf accuracy    <       0.00014789 Ry

     total magnetization       =     3.13 Bohr mag/cell
     absolute magnetization    =     3.33 Bohr mag/cell

     iteration # 44     ecut=    60.00 Ry     beta= 0.20
     CG style diagonalization

---- Real-time Memory Report at c_bands before calling an iterative solver
             0 MiB given to the printing process from OS
             0 MiB allocation reported by mallinfo(arena+hblkhd)
        170120 MiB available memory on the node where the printing process lives
------------------
     ethr =  1.68E-08,  avg # of iterations =  3.0

     negative rho (up, down):  4.877E+00 4.855E+00


     ----------------------------------------------------------------

     Non-local correlation energy =              9.225025364526937

     ----------------------------------------------------------------


     total cpu time spent up to now is     8850.5 secs

     total energy              =  -11591.46951666 Ry
     estimated scf accuracy    <       0.00039629 Ry

     total magnetization       =     3.13 Bohr mag/cell
     absolute magnetization    =     3.33 Bohr mag/cell

     iteration # 45     ecut=    60.00 Ry     beta= 0.20
     CG style diagonalization

---- Real-time Memory Report at c_bands before calling an iterative solver
             0 MiB given to the printing process from OS
             0 MiB allocation reported by mallinfo(arena+hblkhd)
        170090 MiB available memory on the node where the printing process lives
------------------
     ethr =  1.68E-08,  avg # of iterations =  3.0

     negative rho (up, down):  4.877E+00 4.855E+00


     ----------------------------------------------------------------

     Non-local correlation energy =              9.225029201557589

     ----------------------------------------------------------------


     total cpu time spent up to now is     9026.7 secs

     total energy              =  -11591.46952140 Ry
     estimated scf accuracy    <       0.00011905 Ry

     total magnetization       =     3.13 Bohr mag/cell
     absolute magnetization    =     3.33 Bohr mag/cell

     iteration # 46     ecut=    60.00 Ry     beta= 0.20
     CG style diagonalization

---- Real-time Memory Report at c_bands before calling an iterative solver
             0 MiB given to the printing process from OS
             0 MiB allocation reported by mallinfo(arena+hblkhd)
        170111 MiB available memory on the node where the printing process lives
------------------
     ethr =  1.35E-08,  avg # of iterations =  3.0

     negative rho (up, down):  4.877E+00 4.855E+00


     ----------------------------------------------------------------

     Non-local correlation energy =              9.225029723879366

     ----------------------------------------------------------------


     total cpu time spent up to now is     9203.3 secs

     total energy              =  -11591.46951973 Ry
     estimated scf accuracy    <       0.00010769 Ry

     total magnetization       =     3.13 Bohr mag/cell
     absolute magnetization    =     3.33 Bohr mag/cell

     iteration # 47     ecut=    60.00 Ry     beta= 0.20
     CG style diagonalization

---- Real-time Memory Report at c_bands before calling an iterative solver
             0 MiB given to the printing process from OS
             0 MiB allocation reported by mallinfo(arena+hblkhd)
        170085 MiB available memory on the node where the printing process lives
------------------
     ethr =  1.22E-08,  avg # of iterations =  3.0

     negative rho (up, down):  4.877E+00 4.855E+00


     ----------------------------------------------------------------

     Non-local correlation energy =              9.225033263146713

     ----------------------------------------------------------------


     total cpu time spent up to now is     9379.4 secs

     total energy              =  -11591.46950945 Ry
     estimated scf accuracy    <       0.00084582 Ry

     total magnetization       =     3.13 Bohr mag/cell
     absolute magnetization    =     3.33 Bohr mag/cell

     iteration # 48     ecut=    60.00 Ry     beta= 0.20
     CG style diagonalization

---- Real-time Memory Report at c_bands before calling an iterative solver
             0 MiB given to the printing process from OS
             0 MiB allocation reported by mallinfo(arena+hblkhd)
        170108 MiB available memory on the node where the printing process lives
------------------
     ethr =  1.22E-08,  avg # of iterations =  3.0

     negative rho (up, down):  4.878E+00 4.855E+00


     ----------------------------------------------------------------

     Non-local correlation energy =              9.225035755900262

     ----------------------------------------------------------------


     total cpu time spent up to now is     9555.6 secs

     total energy              =  -11591.46951808 Ry
     estimated scf accuracy    <       0.00014272 Ry

     total magnetization       =     3.12 Bohr mag/cell
     absolute magnetization    =     3.32 Bohr mag/cell

     iteration # 49     ecut=    60.00 Ry     beta= 0.20
     CG style diagonalization

---- Real-time Memory Report at c_bands before calling an iterative solver
             0 MiB given to the printing process from OS
             0 MiB allocation reported by mallinfo(arena+hblkhd)
        170088 MiB available memory on the node where the printing process lives
------------------
     ethr =  1.22E-08,  avg # of iterations =  3.0

     negative rho (up, down):  4.878E+00 4.855E+00


     ----------------------------------------------------------------

     Non-local correlation energy =              9.225037447547802

     ----------------------------------------------------------------


     total cpu time spent up to now is     9731.7 secs

     total energy              =  -11591.46952036 Ry
     estimated scf accuracy    <       0.00004056 Ry

     total magnetization       =     3.12 Bohr mag/cell
     absolute magnetization    =     3.32 Bohr mag/cell

     iteration # 50     ecut=    60.00 Ry     beta= 0.20
     CG style diagonalization

---- Real-time Memory Report at c_bands before calling an iterative solver
             0 MiB given to the printing process from OS
             0 MiB allocation reported by mallinfo(arena+hblkhd)
        170116 MiB available memory on the node where the printing process lives
------------------
     ethr =  4.60E-09,  avg # of iterations =  3.0

     negative rho (up, down):  4.878E+00 4.855E+00


     ----------------------------------------------------------------

     Non-local correlation energy =              9.225037290132258

     ----------------------------------------------------------------


     total cpu time spent up to now is     9907.8 secs

     total energy              =  -11591.46951947 Ry
     estimated scf accuracy    <       0.00008171 Ry

     total magnetization       =     3.12 Bohr mag/cell
     absolute magnetization    =     3.32 Bohr mag/cell

     iteration # 51     ecut=    60.00 Ry     beta= 0.20
     CG style diagonalization

---- Real-time Memory Report at c_bands before calling an iterative solver
             0 MiB given to the printing process from OS
             0 MiB allocation reported by mallinfo(arena+hblkhd)
        170098 MiB available memory on the node where the printing process lives
------------------
     ethr =  4.60E-09,  avg # of iterations =  3.0

     negative rho (up, down):  4.878E+00 4.855E+00


     ----------------------------------------------------------------

     Non-local correlation energy =              9.225038110261885

     ----------------------------------------------------------------


     total cpu time spent up to now is    10083.9 secs

     total energy              =  -11591.46951887 Ry
     estimated scf accuracy    <       0.00015894 Ry

     total magnetization       =     3.12 Bohr mag/cell
     absolute magnetization    =     3.32 Bohr mag/cell

     iteration # 52     ecut=    60.00 Ry     beta= 0.20
     CG style diagonalization

---- Real-time Memory Report at c_bands before calling an iterative solver
             0 MiB given to the printing process from OS
             0 MiB allocation reported by mallinfo(arena+hblkhd)
        170107 MiB available memory on the node where the printing process lives
------------------
     ethr =  4.60E-09,  avg # of iterations =  3.0

     negative rho (up, down):  4.878E+00 4.856E+00


     ----------------------------------------------------------------

     Non-local correlation energy =              9.225040929398787

     ----------------------------------------------------------------


     total cpu time spent up to now is    10260.1 secs

     total energy              =  -11591.46952015 Ry
     estimated scf accuracy    <       0.00006955 Ry

     total magnetization       =     3.12 Bohr mag/cell
     absolute magnetization    =     3.32 Bohr mag/cell

     iteration # 53     ecut=    60.00 Ry     beta= 0.20
     CG style diagonalization

---- Real-time Memory Report at c_bands before calling an iterative solver
             0 MiB given to the printing process from OS
             0 MiB allocation reported by mallinfo(arena+hblkhd)
        170101 MiB available memory on the node where the printing process lives
------------------
     ethr =  4.60E-09,  avg # of iterations =  3.0

     negative rho (up, down):  4.878E+00 4.856E+00


     ----------------------------------------------------------------

     Non-local correlation energy =              9.225042617613887

     ----------------------------------------------------------------


     total cpu time spent up to now is    10436.1 secs

     total energy              =  -11591.46952047 Ry
     estimated scf accuracy    <       0.00002679 Ry

     total magnetization       =     3.12 Bohr mag/cell
     absolute magnetization    =     3.32 Bohr mag/cell

     iteration # 54     ecut=    60.00 Ry     beta= 0.20
     CG style diagonalization

---- Real-time Memory Report at c_bands before calling an iterative solver
             0 MiB given to the printing process from OS
             0 MiB allocation reported by mallinfo(arena+hblkhd)
        170095 MiB available memory on the node where the printing process lives
------------------
     ethr =  3.04E-09,  avg # of iterations =  3.0

     negative rho (up, down):  4.878E+00 4.856E+00


     ----------------------------------------------------------------

     Non-local correlation energy =              9.225041464354693

     ----------------------------------------------------------------


     total cpu time spent up to now is    10612.2 secs

     total energy              =  -11591.46951988 Ry
     estimated scf accuracy    <       0.00006958 Ry

     total magnetization       =     3.12 Bohr mag/cell
     absolute magnetization    =     3.32 Bohr mag/cell

     iteration # 55     ecut=    60.00 Ry     beta= 0.20
     CG style diagonalization

---- Real-time Memory Report at c_bands before calling an iterative solver
             0 MiB given to the printing process from OS
             0 MiB allocation reported by mallinfo(arena+hblkhd)
        170105 MiB available memory on the node where the printing process lives
------------------
     ethr =  3.04E-09,  avg # of iterations =  3.0

     negative rho (up, down):  4.878E+00 4.856E+00


     ----------------------------------------------------------------

     Non-local correlation energy =              9.225042549880309

     ----------------------------------------------------------------


     total cpu time spent up to now is    10788.4 secs

     total energy              =  -11591.46952094 Ry
     estimated scf accuracy    <       0.00002963 Ry

     total magnetization       =     3.12 Bohr mag/cell
     absolute magnetization    =     3.32 Bohr mag/cell

     iteration # 56     ecut=    60.00 Ry     beta= 0.20
     CG style diagonalization

---- Real-time Memory Report at c_bands before calling an iterative solver
             0 MiB given to the printing process from OS
             0 MiB allocation reported by mallinfo(arena+hblkhd)
        170101 MiB available memory on the node where the printing process lives
------------------
     ethr =  3.04E-09,  avg # of iterations =  3.0

     negative rho (up, down):  4.878E+00 4.856E+00


     ----------------------------------------------------------------

     Non-local correlation energy =              9.225044889739280

     ----------------------------------------------------------------


     total cpu time spent up to now is    10965.3 secs

     total energy              =  -11591.46952096 Ry
     estimated scf accuracy    <       0.00001237 Ry

     total magnetization       =     3.12 Bohr mag/cell
     absolute magnetization    =     3.32 Bohr mag/cell

     iteration # 57     ecut=    60.00 Ry     beta= 0.20
     CG style diagonalization

---- Real-time Memory Report at c_bands before calling an iterative solver
             0 MiB given to the printing process from OS
             0 MiB allocation reported by mallinfo(arena+hblkhd)
        170087 MiB available memory on the node where the printing process lives
------------------
     ethr =  1.40E-09,  avg # of iterations =  3.0

     negative rho (up, down):  4.878E+00 4.856E+00


     ----------------------------------------------------------------

     Non-local correlation energy =              9.225045807277198

     ----------------------------------------------------------------


     total cpu time spent up to now is    11141.2 secs

     total energy              =  -11591.46951989 Ry
     estimated scf accuracy    <       0.00008228 Ry

     total magnetization       =     3.12 Bohr mag/cell
     absolute magnetization    =     3.32 Bohr mag/cell

     iteration # 58     ecut=    60.00 Ry     beta= 0.20
     CG style diagonalization

---- Real-time Memory Report at c_bands before calling an iterative solver
             0 MiB given to the printing process from OS
             0 MiB allocation reported by mallinfo(arena+hblkhd)
        170116 MiB available memory on the node where the printing process lives
------------------
     ethr =  1.40E-09,  avg # of iterations =  3.0

     negative rho (up, down):  4.878E+00 4.856E+00


     ----------------------------------------------------------------

     Non-local correlation energy =              9.225045708207302

     ----------------------------------------------------------------


     total cpu time spent up to now is    11317.0 secs

     total energy              =  -11591.46952074 Ry
     estimated scf accuracy    <       0.00001693 Ry

     total magnetization       =     3.12 Bohr mag/cell
     absolute magnetization    =     3.32 Bohr mag/cell

     iteration # 59     ecut=    60.00 Ry     beta= 0.20
     CG style diagonalization

---- Real-time Memory Report at c_bands before calling an iterative solver
             0 MiB given to the printing process from OS
             0 MiB allocation reported by mallinfo(arena+hblkhd)
        170096 MiB available memory on the node where the printing process lives
------------------
     ethr =  1.40E-09,  avg # of iterations =  3.0

     negative rho (up, down):  4.878E+00 4.856E+00


     ----------------------------------------------------------------

     Non-local correlation energy =              9.225046891946121

     ----------------------------------------------------------------


     total cpu time spent up to now is    11493.0 secs

     total energy              =  -11591.46952097 Ry
     estimated scf accuracy    <       0.00000652 Ry

     total magnetization       =     3.12 Bohr mag/cell
     absolute magnetization    =     3.32 Bohr mag/cell

     iteration # 60     ecut=    60.00 Ry     beta= 0.20
     CG style diagonalization

---- Real-time Memory Report at c_bands before calling an iterative solver
             0 MiB given to the printing process from OS
             0 MiB allocation reported by mallinfo(arena+hblkhd)
        170104 MiB available memory on the node where the printing process lives
------------------
     ethr =  7.40E-10,  avg # of iterations =  3.0

     negative rho (up, down):  4.878E+00 4.856E+00


     ----------------------------------------------------------------

     Non-local correlation energy =              9.225053871341089

     ----------------------------------------------------------------

 
     Magnetic moment per site  (integrated on atomic sphere of radius R)
     atom   1 (R=0.036)  charge=  7.9945  magn=  0.0046
     atom   2 (R=0.036)  charge=  8.0126  magn=  0.0167
     atom   3 (R=0.036)  charge=  8.0123  magn=  0.0164
     atom   4 (R=0.036)  charge=  8.0181  magn=  0.0309
     atom   5 (R=0.036)  charge=  8.0126  magn=  0.0176
     atom   6 (R=0.036)  charge=  8.0115  magn=  0.0213
     atom   7 (R=0.036)  charge=  8.0037  magn=  0.0309
     atom   8 (R=0.036)  charge=  8.0125  magn=  0.0203
     atom   9 (R=0.036)  charge=  8.0176  magn=  0.0303
     atom  10 (R=0.036)  charge=  8.0122  magn=  0.0172
     atom  11 (R=0.036)  charge=  8.0034  magn=  0.0304
     atom  12 (R=0.036)  charge=  8.0109  magn=  0.0210
     atom  13 (R=0.036)  charge=  8.0068  magn=  0.0130
     atom  14 (R=0.036)  charge=  8.0131  magn=  0.0190
     atom  15 (R=0.036)  charge=  8.0041  magn=  0.0371
     atom  16 (R=0.036)  charge=  8.0040  magn=  0.0367
     atom  17 (R=0.036)  charge=  8.0174  magn=  0.0352
     atom  18 (R=0.036)  charge=  8.0121  magn=  0.0212
     atom  19 (R=0.036)  charge=  8.0123  magn=  0.0199
     atom  20 (R=0.036)  charge=  8.0173  magn=  0.0348
     atom  21 (R=0.036)  charge=  8.0121  magn=  0.0210
     atom  22 (R=0.036)  charge=  8.0180  magn=  0.0327
     atom  23 (R=0.036)  charge=  8.0040  magn=  0.0351
     atom  24 (R=0.036)  charge=  8.0126  magn=  0.0198
     atom  25 (R=0.036)  charge=  8.0126  magn=  0.0197
     atom  26 (R=0.036)  charge=  8.0060  magn=  0.0134
     atom  27 (R=0.036)  charge=  8.0062  magn=  0.0380
     atom  28 (R=0.036)  charge=  8.0125  magn=  0.0217
     atom  29 (R=0.036)  charge=  8.0042  magn=  0.0404
     atom  30 (R=0.036)  charge=  8.0180  magn=  0.0335
     atom  31 (R=0.036)  charge=  8.0136  magn=  0.0214
     atom  32 (R=0.036)  charge=  8.0056  magn=  0.0131
     atom  33 (R=0.036)  charge=  8.0059  magn=  0.0373
     atom  34 (R=0.036)  charge=  8.0043  magn=  0.0400
     atom  35 (R=0.036)  charge=  8.0124  magn=  0.0214
     atom  36 (R=0.036)  charge=  7.9810  magn=  0.0495
     atom  37 (R=0.036)  charge=  8.0038  magn=  0.0409
     atom  38 (R=0.036)  charge=  8.0037  magn=  0.0376
     atom  39 (R=0.036)  charge=  8.0040  magn=  0.0375
     atom  40 (R=0.036)  charge=  8.0061  magn=  0.0151
     atom  41 (R=0.036)  charge=  8.0119  magn=  0.0219
     atom  42 (R=0.036)  charge=  8.0176  magn=  0.0328
     atom  43 (R=0.036)  charge=  8.0138  magn=  0.0210
     atom  44 (R=0.036)  charge=  8.0062  magn=  0.0149
     atom  45 (R=0.036)  charge=  8.0122  magn=  0.0219
     atom  46 (R=0.036)  charge=  8.0168  magn=  0.0414
     atom  47 (R=0.036)  charge=  8.0128  magn=  0.0219
     atom  48 (R=0.036)  charge=  8.0174  magn=  0.0384
     atom  49 (R=0.036)  charge=  8.0117  magn=  0.0220
     atom  50 (R=0.036)  charge=  8.0175  magn=  0.0380
     atom  51 (R=0.036)  charge=  8.0120  magn=  0.0219
     atom  52 (R=0.036)  charge=  8.0063  magn=  0.0156
     atom  53 (R=0.036)  charge=  8.0134  magn=  0.0218
     atom  54 (R=0.036)  charge=  8.0162  magn=  0.0384
     atom  55 (R=0.036)  charge=  8.0166  magn=  0.0382
     atom  56 (R=0.036)  charge=  0.7973  magn= -0.0003

     total cpu time spent up to now is    11668.9 secs

     End of self-consistent calculation

 ------ SPIN UP ------------


          k = 0.0000 0.0000 0.0000 (154474 PWs)   bands (ev):

   -54.9740 -54.9636 -54.9630 -54.4701 -54.4387 -54.4312 -54.4252 -54.4187
[...]
     atom   12 type  1   force =     0.00837191   -0.00722928    0.02414252
     atom   13 type  1   force =     0.02867411   -0.00068578   -0.00068580
     atom   14 type  1   force =     0.02574039   -0.00825678   -0.00825676
     atom   15 type  1   force =    -0.00450840    0.00029099    0.00490498
     atom   16 type  1   force =    -0.00450841    0.00490500    0.00029100
     atom   17 type  1   force =     0.01236411   -0.00049273   -0.01249788
     atom   18 type  1   force =     0.00831961   -0.00840449   -0.02541601
     atom   19 type  1   force =     0.00853254   -0.02578348    0.00882017
     atom   20 type  1   force =     0.01236391   -0.01249769   -0.00049270
     atom   21 type  1   force =     0.00831962   -0.02541599   -0.00840446
     atom   22 type  1   force =     0.00003483    0.01318105    0.01318107
     atom   23 type  1   force =    -0.00019884   -0.00455461   -0.00455461
     atom   24 type  1   force =    -0.00857685    0.02581749    0.00888130
     atom   25 type  1   force =    -0.00857685    0.00888128    0.02581750
     atom   26 type  1   force =     0.00089190    0.02998986   -0.00023512
     atom   27 type  1   force =    -0.00039308   -0.00572722    0.00439158
     atom   28 type  1   force =    -0.00811314    0.02485290   -0.00796856
     atom   29 type  1   force =     0.00412646   -0.00484466   -0.00013782
     atom   30 type  1   force =    -0.00006148    0.01261077   -0.01193463
     atom   31 type  1   force =    -0.00784961    0.00983793   -0.02694160
     atom   32 type  1   force =     0.00089190   -0.00023510    0.02998988
     atom   33 type  1   force =    -0.00039312    0.00439157   -0.00572723
     atom   34 type  1   force =     0.00412646   -0.00013783   -0.00484464
     atom   35 type  1   force =    -0.00811311   -0.00796854    0.02485285
     atom   36 type  1   force =     0.00092385    0.00093093    0.00093096
     atom   37 type  1   force =    -0.00038949    0.00508044    0.00508043
     atom   38 type  1   force =     0.00516918    0.00020094    0.00492045
     atom   39 type  1   force =     0.00516918    0.00492043    0.00020095
     atom   40 type  1   force =    -0.00019600   -0.00024251   -0.03057263
     atom   41 type  1   force =    -0.00848377   -0.00813188   -0.02544321
     atom   42 type  1   force =    -0.00006148   -0.01193442    0.01261056
     atom   43 type  1   force =    -0.00784959   -0.02694154    0.00983792
     atom   44 type  1   force =    -0.00019601   -0.03057265   -0.00024253
     atom   45 type  1   force =    -0.00848377   -0.02544323   -0.00813188
     atom   46 type  1   force =     0.00029534   -0.01227719   -0.01227716
     atom   47 type  1   force =    -0.02596713    0.00854572    0.00854573
     atom   48 type  1   force =    -0.01280491    0.01310540   -0.00000313
     atom   49 type  1   force =    -0.02537093    0.00830269   -0.00845933
     atom   50 type  1   force =    -0.01280485   -0.00000315    0.01310536
     atom   51 type  1   force =    -0.02537091   -0.00845932    0.00830269
     atom   52 type  1   force =    -0.03041099   -0.00006691   -0.00006691
     atom   53 type  1   force =    -0.02598010   -0.00845413   -0.00845412
     atom   54 type  1   force =    -0.01182887   -0.00074713   -0.01192338
     atom   55 type  1   force =    -0.01182880   -0.01192333   -0.00074713
     atom   56 type  2   force =     0.00000000    0.00000000    0.00000000
     The Hubbard contrib.    to forces
     atom    1 type  1   force =     0.00000000    0.00000000    0.00000000
     atom    2 type  1   force =     0.00000000    0.00000000    0.00000000
     atom    3 type  1   force =     0.00000000    0.00000000    0.00000000
     atom    4 type  1   force =     0.00000000    0.00000000    0.00000000
     atom    5 type  1   force =     0.00000000    0.00000000    0.00000000
     atom    6 type  1   force =     0.00000000    0.00000000    0.00000000
     atom    7 type  1   force =     0.00000000    0.00000000    0.00000000
     atom    8 type  1   force =     0.00000000    0.00000000    0.00000000
     atom    9 type  1   force =     0.00000000    0.00000000    0.00000000
     atom   10 type  1   force =     0.00000000    0.00000000    0.00000000
     atom   11 type  1   force =     0.00000000    0.00000000    0.00000000
     atom   12 type  1   force =     0.00000000    0.00000000    0.00000000
     atom   13 type  1   force =     0.00000000    0.00000000    0.00000000
     atom   14 type  1   force =     0.00000000    0.00000000    0.00000000
     atom   15 type  1   force =     0.00000000    0.00000000    0.00000000
     atom   16 type  1   force =     0.00000000    0.00000000    0.00000000
     atom   17 type  1   force =     0.00000000    0.00000000    0.00000000
     atom   18 type  1   force =     0.00000000    0.00000000    0.00000000
     atom   19 type  1   force =     0.00000000    0.00000000    0.00000000
     atom   20 type  1   force =     0.00000000    0.00000000    0.00000000
     atom   21 type  1   force =     0.00000000    0.00000000    0.00000000
     atom   22 type  1   force =     0.00000000    0.00000000    0.00000000
     atom   23 type  1   force =     0.00000000    0.00000000    0.00000000
     atom   24 type  1   force =     0.00000000    0.00000000    0.00000000
     atom   25 type  1   force =     0.00000000    0.00000000    0.00000000
     atom   26 type  1   force =     0.00000000    0.00000000    0.00000000
     atom   27 type  1   force =     0.00000000    0.00000000    0.00000000
     atom   28 type  1   force =     0.00000000    0.00000000    0.00000000
     atom   29 type  1   force =     0.00000000    0.00000000    0.00000000
     atom   30 type  1   force =     0.00000000    0.00000000    0.00000000
     atom   31 type  1   force =     0.00000000    0.00000000    0.00000000
     atom   32 type  1   force =     0.00000000    0.00000000    0.00000000
     atom   33 type  1   force =     0.00000000    0.00000000    0.00000000
     atom   34 type  1   force =     0.00000000    0.00000000    0.00000000
     atom   35 type  1   force =     0.00000000    0.00000000    0.00000000
     atom   36 type  1   force =     0.00000000    0.00000000    0.00000000
     atom   37 type  1   force =     0.00000000    0.00000000    0.00000000
     atom   38 type  1   force =     0.00000000    0.00000000    0.00000000
     atom   39 type  1   force =     0.00000000    0.00000000    0.00000000
     atom   40 type  1   force =     0.00000000    0.00000000    0.00000000
     atom   41 type  1   force =     0.00000000    0.00000000    0.00000000
     atom   42 type  1   force =     0.00000000    0.00000000    0.00000000
     atom   43 type  1   force =     0.00000000    0.00000000    0.00000000
     atom   44 type  1   force =     0.00000000    0.00000000    0.00000000
     atom   45 type  1   force =     0.00000000    0.00000000    0.00000000
     atom   46 type  1   force =     0.00000000    0.00000000    0.00000000
     atom   47 type  1   force =     0.00000000    0.00000000    0.00000000
     atom   48 type  1   force =     0.00000000    0.00000000    0.00000000
     atom   49 type  1   force =     0.00000000    0.00000000    0.00000000
     atom   50 type  1   force =     0.00000000    0.00000000    0.00000000
     atom   51 type  1   force =     0.00000000    0.00000000    0.00000000
     atom   52 type  1   force =     0.00000000    0.00000000    0.00000000
     atom   53 type  1   force =     0.00000000    0.00000000    0.00000000
     atom   54 type  1   force =     0.00000000    0.00000000    0.00000000
     atom   55 type  1   force =     0.00000000    0.00000000    0.00000000
     atom   56 type  2   force =     0.00000000    0.00000000    0.00000000
     The SCF correction term to forces
     atom    1 type  1   force =     0.00000746    0.00003791    0.00000362
     atom    2 type  1   force =     0.00000768    0.00001057    0.00001811
     atom    3 type  1   force =     0.00000757    0.00005328    0.00000243
     atom    4 type  1   force =     0.00001278    0.00000523    0.00001383
     atom    5 type  1   force =     0.00002667    0.00000905    0.00000730
     atom    6 type  1   force =     0.00004496    0.00001475    0.00001394
     atom    7 type  1   force =     0.00003178    0.00003789    0.00002192
     atom    8 type  1   force =     0.00001958   -0.00004990   -0.00002346
     atom    9 type  1   force =     0.00003013    0.00003836    0.00000812
     atom   10 type  1   force =     0.00005228    0.00002134   -0.00000512
     atom   11 type  1   force =     0.00003354    0.00006955    0.00000177
     atom   12 type  1   force =     0.00005357    0.00002083    0.00003448
     atom   13 type  1   force =     0.00002465    0.00004844    0.00000791
     atom   14 type  1   force =    -0.00000855    0.00000063   -0.00003482
     atom   15 type  1   force =    -0.00000617   -0.00003876   -0.00003947
     atom   16 type  1   force =    -0.00000411   -0.00000296   -0.00008649
     atom   17 type  1   force =    -0.00000982   -0.00002841   -0.00001480
     atom   18 type  1   force =    -0.00006596   -0.00004698    0.00000330
     atom   19 type  1   force =     0.00002914   -0.00004326   -0.00005630
     atom   20 type  1   force =     0.00000820   -0.00001757   -0.00005335
     atom   21 type  1   force =    -0.00006565    0.00001160   -0.00008257
     atom   22 type  1   force =    -0.00001143    0.00001400   -0.00000109
     atom   23 type  1   force =    -0.00000008    0.00007206    0.00003425
     atom   24 type  1   force =    -0.00001094   -0.00000128    0.00003113
     atom   25 type  1   force =    -0.00001788    0.00005495   -0.00000713
     atom   26 type  1   force =     0.00000906    0.00001732    0.00005744
     atom   27 type  1   force =     0.00000249   -0.00004136   -0.00000128
     atom   28 type  1   force =    -0.00003419    0.00000629    0.00002126
     atom   29 type  1   force =    -0.00004014    0.00000735    0.00004458
     atom   30 type  1   force =     0.00000450   -0.00000384   -0.00003217
     atom   31 type  1   force =    -0.00003326   -0.00007539   -0.00002341
     atom   32 type  1   force =    -0.00000161    0.00008706    0.00002642
     atom   33 type  1   force =    -0.00001210    0.00002144   -0.00006294
     atom   34 type  1   force =    -0.00005346    0.00007757   -0.00001708
     atom   35 type  1   force =    -0.00005909    0.00003046    0.00001850
     atom   36 type  1   force =    -0.00001342    0.00001560   -0.00003515
     atom   37 type  1   force =    -0.00003915   -0.00005584   -0.00009445
     atom   38 type  1   force =    -0.00002456   -0.00007435   -0.00003110
     atom   39 type  1   force =    -0.00003795   -0.00000584   -0.00010748
     atom   40 type  1   force =    -0.00001426   -0.00010192   -0.00001016
     atom   41 type  1   force =     0.00003502   -0.00005280    0.00002176
     atom   42 type  1   force =    -0.00000572   -0.00004973    0.00001416
     atom   43 type  1   force =    -0.00005805   -0.00003456   -0.00008409
     atom   44 type  1   force =    -0.00002485   -0.00001934   -0.00013185
     atom   45 type  1   force =     0.00002806    0.00002811   -0.00007746
     atom   46 type  1   force =    -0.00002065    0.00003089    0.00001546
     atom   47 type  1   force =    -0.00001869    0.00001660   -0.00000035
     atom   48 type  1   force =    -0.00002117   -0.00000828    0.00003182
     atom   49 type  1   force =    -0.00003554   -0.00003793    0.00001340
     atom   50 type  1   force =    -0.00003573    0.00004629   -0.00000854
     atom   51 type  1   force =    -0.00005538    0.00002350   -0.00004731
     atom   52 type  1   force =    -0.00002436   -0.00000234   -0.00002167
     atom   53 type  1   force =     0.00002728   -0.00001653   -0.00003416
     atom   54 type  1   force =     0.00000605   -0.00006960    0.00000689
     atom   55 type  1   force =    -0.00000874    0.00000764   -0.00008429
     atom   56 type  2   force =    -0.00000256    0.00000072   -0.00000047

     Total force =     0.003595     Total SCF correction =     0.000503
     SCF correction compared to forces is large: reduce conv_thr to get better values
     Energy error            =      2.4E-05 Ry
     Gradient error          =      8.5E-04 Ry/Bohr

     bfgs converged in  16 scf cycles and  15 bfgs steps
     (criteria: energy <  1.0E-04 Ry, force <  1.0E-03 Ry/Bohr)

     End of BFGS Geometry Optimization

     Final energy             =  -11591.5337960884 Ry

     File ./out/calc.bfgs deleted, as requested
Begin final coordinates

ATOMIC_POSITIONS (angstrom)
Pt              -4.0205752542       -1.9614732447       -1.9614732447
Pt              -1.9244496387       -3.9355747042       -1.9044389277
Pt              -1.9244496387       -1.9044389277       -3.9355747042
Pt              -3.7962730026       -3.8229193172        0.0258760769
Pt              -3.9483543966       -1.9078992057        1.9208525127
Pt              -1.8954892163       -3.9118350072        1.9130971636
Pt              -1.9669728527       -1.9261361313       -0.0272690831
Pt              -1.9080246168       -1.9053492389        3.9471112937
Pt              -3.7962730026        0.0258760769       -3.8229193172
Pt              -3.9483543966        1.9208525127       -1.9078992057
Pt              -1.9669728527       -0.0272690831       -1.9261361313
Pt              -1.8954892163        1.9130971636       -3.9118350072
Pt              -4.1685973678       -0.0297658055       -0.0297658055
Pt              -3.9180783334        1.8915678744        1.8915678744
Pt              -1.9294863962       -0.0187906129        1.9151901085
Pt              -1.9294863962        1.9151901085       -0.0187906129
Pt              -3.8059353548       -0.0017819959        3.8093567664
Pt              -1.9033293386        1.9005457983        3.9297872814
Pt              -1.9080246168        3.9471112937       -1.9053492389
Pt              -3.8059353548        3.8093567664       -0.0017819959
Pt              -1.9033293386        3.9297872814        1.9005457983
Pt              -0.0049687299       -3.8013157508       -3.8013157508
Pt              -0.0073362268       -1.9324053621       -1.9324053621
Pt               1.9233118529       -3.9329699087       -1.9158259740
Pt               1.9233118529       -1.9158259740       -3.9329699087
Pt               0.0063905018       -4.1220370434       -0.0101223699
Pt              -0.0005581886       -1.9308814871        1.9319932544
Pt               1.9056023587       -3.9345256907        1.9203376785
Pt               1.9244011515       -1.9298476271       -0.0017681067
Pt               0.0074922309       -3.7917470403        3.8322072817
Pt               1.9305842280       -1.9010026394        3.9410743694
Pt               0.0063905018       -0.0101223699       -4.1220370434
Pt              -0.0005581886        1.9319932544       -1.9308814871
Pt               1.9244011515       -0.0017681067       -1.9298476271
Pt               1.9056023587        1.9203376785       -3.9345256907
Pt              -0.0148329334       -0.0169859043       -0.0169859043
Pt              -0.0087547080        1.9132585531        1.9132585531
Pt               1.9220286150       -0.0061520781        1.9208265137
Pt               1.9220286150        1.9208265137       -0.0061520781
Pt               0.0047757605       -0.0043273406        4.1389838834
Pt               1.9085274449        1.9048471048        3.9293264951
Pt               0.0074922309        3.8322072817       -3.7917470403
Pt               1.9305842280        3.9410743694       -1.9010026394
Pt               0.0047757605        4.1389838834       -0.0043273406
Pt               1.9085274449        3.9293264951        1.9048471048
Pt               0.0063701435        3.8010839050        3.8010839050
Pt               3.9394510051       -1.9079697141       -1.9079697141
Pt               3.8067450818       -3.8048690668        0.0100873713
Pt               3.9397793508       -1.9055957898        1.9119163018
Pt               3.8067450818        0.0100873713       -3.8048690668
Pt               3.9397793508        1.9119163018       -1.9055957898
Pt               4.1401201970       -0.0001989043       -0.0001989043
Pt               3.9252910751        1.9079951119        1.9079951119
Pt               3.8121604124       -0.0010994599        3.8152748664
Pt               3.8121604124        3.8152748664       -0.0010994599
H               -5.3187657915       -2.5861087141       -2.5861087141
End final coordinates



     Writing all to output data dir ./out/calc.save/ :
     XML data file, charge density, pseudopotentials, collected wavefunctions
 
     init_run     :     15.69s CPU     17.83s WALL (       1 calls)
     electrons    : 118033.34s CPU 120456.58s WALL (      14 calls)
     update_pot   :     30.28s CPU     33.86s WALL (      13 calls)
     forces       :     97.10s CPU    104.30s WALL (      14 calls)

     Called by init_run:
     wfcinit      :      8.83s CPU      9.49s WALL (       1 calls)
     wfcinit:atom :      0.04s CPU      0.08s WALL (       2 calls)
     wfcinit:wfcr :      8.41s CPU      9.01s WALL (       2 calls)
     potinit      :      3.56s CPU      4.82s WALL (       1 calls)
     hinit0       :      0.95s CPU      1.03s WALL (       1 calls)

     Called by electrons:
     c_bands      : 113312.15s CPU 115305.80s WALL (     600 calls)
     sum_band     :   2841.94s CPU   3018.01s WALL (     600 calls)
     v_of_rho     :   1340.47s CPU   1500.66s WALL (     609 calls)
     v_h          :     19.20s CPU     20.95s WALL (     609 calls)
     v_xc         :   1351.55s CPU   1513.83s WALL (     623 calls)
     newd         :    481.26s CPU    548.24s WALL (     609 calls)
     mix_rho      :     56.16s CPU     60.56s WALL (     600 calls)

     Called by c_bands:
     init_us_2    :    122.58s CPU    124.28s WALL (    2430 calls)
     rcgdiagg     : 109272.48s CPU 111026.02s WALL (    1231 calls)
     wfcrot       :   3938.12s CPU   4163.84s WALL (    1195 calls)

     Called by sum_band:
     sum_band:wei :      1.01s CPU      1.03s WALL (     600 calls)
     sum_band:loo :   2119.15s CPU   2225.19s WALL (     600 calls)
     sum_band:buf :     23.48s CPU     23.77s WALL (    1200 calls)
     sum_band:ini :     60.73s CPU     61.50s WALL (    1200 calls)
     sum_band:cal :    351.25s CPU    353.42s WALL (    1200 calls)
     sum_band:bec :      2.60s CPU      2.63s WALL (    1200 calls)
     addusdens    :    681.08s CPU    748.48s WALL (     600 calls)
                                        0.00s GPU  (     600 calls)
     addusd:skk   :     18.48s CPU     33.42s WALL (    1200 calls)
                                        0.00s GPU  (    1200 calls)

     Called by *cgdiagg:
     h_psi        :  49592.47s CPU  50979.27s WALL ( 1462571 calls)
     s_psi        :  34396.31s CPU  34718.82s WALL ( 2923947 calls)

     Called by h_psi:
     h_psi:calbec :  18901.77s CPU  19073.35s WALL ( 1462571 calls)
     vloc_psi     :  13309.60s CPU  14364.78s WALL ( 1462571 calls)
     add_vuspsi   :  17312.34s CPU  17476.09s WALL ( 1462571 calls)
     hs_1psi      :  63808.44s CPU  65152.07s WALL ( 1461376 calls)
     s_1psi       :  34864.49s CPU  35178.41s WALL ( 1461376 calls)

     General routines
     calbec       :  37215.17s CPU  37551.29s WALL ( 2925259 calls)
     fft          :    719.70s CPU    833.38s WALL (   42322 calls)
     ffts         :      8.83s CPU     10.28s WALL (    1818 calls)
     fftw         :   8129.70s CPU   9178.39s WALL ( 3874366 calls)
     interpolate  :     30.82s CPU     34.98s WALL (    1218 calls)
 
     Parallel routines
 
     PWSCF        :   1d 8h49m CPU   1d 9h31m WALL

 
   This run was terminated on:  19:45:38  18Jan2025            

=------------------------------------------------------------------------------=
   JOB DONE.
=------------------------------------------------------------------------------=
