
     Program PWSCF v.7.3.1 starts on 18Jan2025 at  2:31:28 

     This program is part of the open-source Quantum ESPRESSO suite
     for quantum simulation of materials; please cite
         "P. Giannozzi et al., J. Phys.:Condens. Matter 21 395502 (2009);
         "P. Giannozzi et al., J. Phys.:Condens. Matter 29 465901 (2017);
         "P. Giannozzi et al., J. Chem. Phys. 152 154105 (2020);
          URL http://www.quantum-espresso.org", 
     in publications or presentations arising from this work. More details at
     http://www.quantum-espresso.org/quote

     Parallel version (MPI), running on    36 processors

     MPI processes distributed on     1 nodes
     183721 MiB available memory on the printing compute node when the environment starts
 
     Reading input from espresso.pwi
Warning: card   &CELL ignored
Warning: card      CELL_DOFREE = 'IBRAV' ignored
Warning: card / ignored

     Current dimensions of program PWSCF are:
     Max number of different atomic species (ntypx) = 10
     Max number of k-points (npk) =  40000
     Max angular momentum in pseudopotentials (lmaxx) =  4

     IMPORTANT: XC functional enforced from input :
     Exchange-correlation= RVV10
                           (   1   4  13   4  26   0   0)
     Any further DFT definition will be discarded
     Please, verify this is what you really want


     gamma-point specific algorithms are used
     Message from routine setup:
     using ibrav=0 with symmetry is DISCOURAGED, use correct ibrav instead
 
     R & G space division:  proc/nbgrp/npool/nimage =      36
     Subspace diagonalization in iterative solution of the eigenvalue problem:
     one sub-group per band group will be used
     scalapack distributed-memory algorithm (size of sub-group:  5*  5 procs)

 
     Parallelization info
     --------------------
     sticks:   dense  smooth     PW     G-vecs:    dense   smooth      PW
     Min        1227     612    151               194140    68620    8576
     Max        1230     614    154               194152    68634    8590
     Sum       44213   22097   5513              6989249  2470567  308947
 
     Using Slab Decomposition
 

     Title: 
     calc                                                                       


     bravais-lattice index     =            0
     lattice parameter (alat)  =      34.0151  a.u.
     unit-cell volume          =   39356.2868 (a.u.)^3
     number of atoms/cell      =           56
     number of atomic types    =            2
     number of electrons       =       881.00
     number of Kohn-Sham states=          529
     kinetic-energy cutoff     =      60.0000  Ry
     charge density cutoff     =     480.0000  Ry
     scf convergence threshold =      1.0E-06
     mixing beta               =       0.2000
     number of iterations used =            8  plain     mixing
     energy convergence thresh.=      1.0E-04
     force convergence thresh. =      1.0E-03
     Exchange-correlation= RVV10
                           (   1   4  13   4  26   0   0)
     nstep                     =        10000


     celldm(1)=  34.015070  celldm(2)=   0.000000  celldm(3)=   0.000000
     celldm(4)=   0.000000  celldm(5)=   0.000000  celldm(6)=   0.000000

     crystal axes: (cart. coord. in units of alat)
               a(1) = (   1.000000   0.000000   0.000000 )  
               a(2) = (   0.000000   1.000000   0.000000 )  
               a(3) = (   0.000000   0.000000   1.000000 )  

     reciprocal axes: (cart. coord. in units 2 pi/alat)
               b(1) = (  1.000000  0.000000  0.000000 )  
               b(2) = (  0.000000  1.000000  0.000000 )  
               b(3) = (  0.000000  0.000000  1.000000 )  


     PseudoPot. # 1 for Pt read from file:
     /home/james/work/espresso/SSSP_1.3.0_PBE_efficiency/pt_pbe_v1.4.uspp.F.UPF
     MD5 check sum: f09d6de1a584b5a045c4fc126da2d0c4
     Pseudo is Ultrasoft + core correction, Zval = 16.0
     Generated by new atomic code, or converted to UPF format
     Using radial grid of  985 points,  6 beta functions with: 
                l(1) =   0
                l(2) =   0
                l(3) =   1
                l(4) =   1
                l(5) =   2
                l(6) =   2
     Q(r) pseudized with  8 coefficients,  rinner =    1.300   1.300   1.300
                                                       1.300   1.300

     PseudoPot. # 2 for H  read from file:
     /home/james/work/espresso/SSSP_1.3.0_PBE_efficiency/H.pbe-rrkjus_psl.1.0.0.UPF
     MD5 check sum: f52b6d4d1c606e5624b1dc7b2218f220
     Pseudo is Ultrasoft, Zval =  1.0
     Generated using "atomic" code by A. Dal Corso  v.5.1
     Using radial grid of  929 points,  2 beta functions with: 
                l(1) =   0
                l(2) =   0
     Q(r) pseudized with 0 coefficients 


     atomic species   valence    mass     pseudopotential
     Pt               16.00   195.08400     Pt( 1.00)
     H                 1.00     1.00800     H ( 1.00)

     Starting magnetic structure 
     atomic species   magnetization
     Pt              0.010
     H               0.020

      2 Sym. Ops. (no inversion) found


                                    s                        frac. trans.

      isym =  1     identity                                     

 cryst.   s( 1) = (     1          0          0      )
                  (     0          1          0      )
                  (     0          0          1      )

 cart.    s( 1) = (  1.0000000  0.0000000  0.0000000 )
                  (  0.0000000  1.0000000  0.0000000 )
                  (  0.0000000  0.0000000  1.0000000 )


      isym =  2     inv. 180 deg rotation - cart. axis [1,-1,0]  

 cryst.   s( 2) = (     0          1          0      )
                  (     1          0          0      )
                  (     0          0          1      )

 cart.    s( 2) = (  0.0000000  1.0000000  0.0000000 )
                  (  1.0000000  0.0000000  0.0000000 )
                  (  0.0000000  0.0000000  1.0000000 )


   Cartesian axes

     site n.     atom                  positions (alat units)
         1        Pt     tau(   1) = (  -0.2177778  -0.1088889  -0.1088889  )
         2        Pt     tau(   2) = (  -0.1088889  -0.2177778  -0.1088889  )
         3        Pt     tau(   3) = (  -0.1088889  -0.1088889  -0.2177778  )
         4        Pt     tau(   4) = (  -0.2177778  -0.2177778   0.0000000  )
         5        Pt     tau(   5) = (  -0.2177778  -0.1088889   0.1088889  )
         6        Pt     tau(   6) = (  -0.1088889  -0.2177778   0.1088889  )
         7        Pt     tau(   7) = (  -0.1088889  -0.1088889   0.0000000  )
         8        Pt     tau(   8) = (  -0.1088889  -0.1088889   0.2177778  )
         9        Pt     tau(   9) = (  -0.2177778   0.0000000  -0.2177778  )
        10        Pt     tau(  10) = (  -0.2177778   0.1088889  -0.1088889  )
        11        Pt     tau(  11) = (  -0.1088889   0.0000000  -0.1088889  )
        12        Pt     tau(  12) = (  -0.1088889   0.1088889  -0.2177778  )
        13        Pt     tau(  13) = (  -0.2177778   0.0000000   0.0000000  )
        14        Pt     tau(  14) = (  -0.2177778   0.1088889   0.1088889  )
        15        Pt     tau(  15) = (  -0.1088889   0.0000000   0.1088889  )
        16        Pt     tau(  16) = (  -0.1088889   0.1088889   0.0000000  )
        17        Pt     tau(  17) = (  -0.2177778   0.0000000   0.2177778  )
        18        Pt     tau(  18) = (  -0.1088889   0.1088889   0.2177778  )
        19        Pt     tau(  19) = (  -0.1088889   0.2177778  -0.1088889  )
        20        Pt     tau(  20) = (  -0.2177778   0.2177778   0.0000000  )
        21        Pt     tau(  21) = (  -0.1088889   0.2177778   0.1088889  )
        22        Pt     tau(  22) = (   0.0000000  -0.2177778  -0.2177778  )
        23        Pt     tau(  23) = (   0.0000000  -0.1088889  -0.1088889  )
        24        Pt     tau(  24) = (   0.1088889  -0.2177778  -0.1088889  )
        25        Pt     tau(  25) = (   0.1088889  -0.1088889  -0.2177778  )
        26        Pt     tau(  26) = (   0.0000000  -0.2177778   0.0000000  )
        27        Pt     tau(  27) = (   0.0000000  -0.1088889   0.1088889  )
        28        Pt     tau(  28) = (   0.1088889  -0.2177778   0.1088889  )
        29        Pt     tau(  29) = (   0.1088889  -0.1088889   0.0000000  )
        30        Pt     tau(  30) = (   0.0000000  -0.2177778   0.2177778  )
        31        Pt     tau(  31) = (   0.1088889  -0.1088889   0.2177778  )
        32        Pt     tau(  32) = (   0.0000000   0.0000000  -0.2177778  )
        33        Pt     tau(  33) = (   0.0000000   0.1088889  -0.1088889  )
        34        Pt     tau(  34) = (   0.1088889   0.0000000  -0.1088889  )
        35        Pt     tau(  35) = (   0.1088889   0.1088889  -0.2177778  )
        36        Pt     tau(  36) = (   0.0000000   0.0000000   0.0000000  )
        37        Pt     tau(  37) = (   0.0000000   0.1088889   0.1088889  )
        38        Pt     tau(  38) = (   0.1088889   0.0000000   0.1088889  )
        39        Pt     tau(  39) = (   0.1088889   0.1088889   0.0000000  )
        40        Pt     tau(  40) = (   0.0000000   0.0000000   0.2177778  )
        41        Pt     tau(  41) = (   0.1088889   0.1088889   0.2177778  )
        42        Pt     tau(  42) = (   0.0000000   0.2177778  -0.2177778  )
        43        Pt     tau(  43) = (   0.1088889   0.2177778  -0.1088889  )
        44        Pt     tau(  44) = (   0.0000000   0.2177778   0.0000000  )
        45        Pt     tau(  45) = (   0.1088889   0.2177778   0.1088889  )
        46        Pt     tau(  46) = (   0.0000000   0.2177778   0.2177778  )
        47        Pt     tau(  47) = (   0.2177778  -0.1088889  -0.1088889  )
        48        Pt     tau(  48) = (   0.2177778  -0.2177778   0.0000000  )
        49        Pt     tau(  49) = (   0.2177778  -0.1088889   0.1088889  )
        50        Pt     tau(  50) = (   0.2177778   0.0000000  -0.2177778  )
        51        Pt     tau(  51) = (   0.2177778   0.1088889  -0.1088889  )
        52        Pt     tau(  52) = (   0.2177778   0.0000000   0.0000000  )
        53        Pt     tau(  53) = (   0.2177778   0.1088889   0.1088889  )
        54        Pt     tau(  54) = (   0.2177778   0.0000000   0.2177778  )
        55        Pt     tau(  55) = (   0.2177778   0.2177778   0.0000000  )
        56        H      tau(  56) = (  -0.2171032  -0.2171032  -0.1429776  )

   Crystallographic axes

     site n.     atom                  positions (cryst. coord.)
         1        Pt     tau(   1) = ( -0.2177778 -0.1088889 -0.1088889  )
         2        Pt     tau(   2) = ( -0.1088889 -0.2177778 -0.1088889  )
         3        Pt     tau(   3) = ( -0.1088889 -0.1088889 -0.2177778  )
         4        Pt     tau(   4) = ( -0.2177778 -0.2177778  0.0000000  )
         5        Pt     tau(   5) = ( -0.2177778 -0.1088889  0.1088889  )
         6        Pt     tau(   6) = ( -0.1088889 -0.2177778  0.1088889  )
         7        Pt     tau(   7) = ( -0.1088889 -0.1088889  0.0000000  )
         8        Pt     tau(   8) = ( -0.1088889 -0.1088889  0.2177778  )
         9        Pt     tau(   9) = ( -0.2177778  0.0000000 -0.2177778  )
        10        Pt     tau(  10) = ( -0.2177778  0.1088889 -0.1088889  )
        11        Pt     tau(  11) = ( -0.1088889  0.0000000 -0.1088889  )
        12        Pt     tau(  12) = ( -0.1088889  0.1088889 -0.2177778  )
        13        Pt     tau(  13) = ( -0.2177778  0.0000000  0.0000000  )
        14        Pt     tau(  14) = ( -0.2177778  0.1088889  0.1088889  )
        15        Pt     tau(  15) = ( -0.1088889  0.0000000  0.1088889  )
        16        Pt     tau(  16) = ( -0.1088889  0.1088889  0.0000000  )
        17        Pt     tau(  17) = ( -0.2177778  0.0000000  0.2177778  )
        18        Pt     tau(  18) = ( -0.1088889  0.1088889  0.2177778  )
        19        Pt     tau(  19) = ( -0.1088889  0.2177778 -0.1088889  )
        20        Pt     tau(  20) = ( -0.2177778  0.2177778  0.0000000  )
        21        Pt     tau(  21) = ( -0.1088889  0.2177778  0.1088889  )
        22        Pt     tau(  22) = (  0.0000000 -0.2177778 -0.2177778  )
        23        Pt     tau(  23) = (  0.0000000 -0.1088889 -0.1088889  )
        24        Pt     tau(  24) = (  0.1088889 -0.2177778 -0.1088889  )
        25        Pt     tau(  25) = (  0.1088889 -0.1088889 -0.2177778  )
        26        Pt     tau(  26) = (  0.0000000 -0.2177778  0.0000000  )
        27        Pt     tau(  27) = (  0.0000000 -0.1088889  0.1088889  )
        28        Pt     tau(  28) = (  0.1088889 -0.2177778  0.1088889  )
        29        Pt     tau(  29) = (  0.1088889 -0.1088889  0.0000000  )
        30        Pt     tau(  30) = (  0.0000000 -0.2177778  0.2177778  )
        31        Pt     tau(  31) = (  0.1088889 -0.1088889  0.2177778  )
        32        Pt     tau(  32) = (  0.0000000  0.0000000 -0.2177778  )
        33        Pt     tau(  33) = (  0.0000000  0.1088889 -0.1088889  )
        34        Pt     tau(  34) = (  0.1088889  0.0000000 -0.1088889  )
        35        Pt     tau(  35) = (  0.1088889  0.1088889 -0.2177778  )
        36        Pt     tau(  36) = (  0.0000000  0.0000000  0.0000000  )
        37        Pt     tau(  37) = (  0.0000000  0.1088889  0.1088889  )
        38        Pt     tau(  38) = (  0.1088889  0.0000000  0.1088889  )
        39        Pt     tau(  39) = (  0.1088889  0.1088889  0.0000000  )
        40        Pt     tau(  40) = (  0.0000000  0.0000000  0.2177778  )
        41        Pt     tau(  41) = (  0.1088889  0.1088889  0.2177778  )
        42        Pt     tau(  42) = (  0.0000000  0.2177778 -0.2177778  )
        43        Pt     tau(  43) = (  0.1088889  0.2177778 -0.1088889  )
        44        Pt     tau(  44) = (  0.0000000  0.2177778  0.0000000  )
        45        Pt     tau(  45) = (  0.1088889  0.2177778  0.1088889  )
        46        Pt     tau(  46) = (  0.0000000  0.2177778  0.2177778  )
        47        Pt     tau(  47) = (  0.2177778 -0.1088889 -0.1088889  )
        48        Pt     tau(  48) = (  0.2177778 -0.2177778  0.0000000  )
        49        Pt     tau(  49) = (  0.2177778 -0.1088889  0.1088889  )
        50        Pt     tau(  50) = (  0.2177778  0.0000000 -0.2177778  )
        51        Pt     tau(  51) = (  0.2177778  0.1088889 -0.1088889  )
        52        Pt     tau(  52) = (  0.2177778  0.0000000  0.0000000  )
        53        Pt     tau(  53) = (  0.2177778  0.1088889  0.1088889  )
        54        Pt     tau(  54) = (  0.2177778  0.0000000  0.2177778  )
        55        Pt     tau(  55) = (  0.2177778  0.2177778  0.0000000  )
        56        H      tau(  56) = ( -0.2171032 -0.2171032 -0.1429776  )

     number of k points=     1  Gaussian smearing, width (Ry)=  0.0100
                       cart. coord. in units 2pi/alat
        k(    1) = (   0.0000000   0.0000000   0.0000000), wk =   1.0000000

                       cryst. coord.
        k(    1) = (   0.0000000   0.0000000   0.0000000), wk =   1.0000000

     Dense  grid:  3494625 G-vectors     FFT dimensions: ( 240, 240, 240)

     Smooth grid:  1235284 G-vectors     FFT dimensions: ( 180, 180, 180)

     Dynamical RAM for                 wfc:      34.63 MB

     Dynamical RAM for     wfc (w. buffer):     103.89 MB

     Dynamical RAM for           str. fact:       2.96 MB

     Dynamical RAM for           local pot:       0.00 MB

     Dynamical RAM for          nlocal pot:      64.94 MB

     Dynamical RAM for                qrad:       3.52 MB

     Dynamical RAM for          rho,v,vnew:      27.34 MB

     Dynamical RAM for               rhoin:       9.11 MB

     Dynamical RAM for            rho*nmix:      47.40 MB

     Dynamical RAM for           G-vectors:       5.82 MB

     Dynamical RAM for          h,s,v(r/c):       0.25 MB

     Dynamical RAM for          <psi|beta>:       4.00 MB

     Dynamical RAM for      wfcinit/wfcrot:      75.67 MB

     Dynamical RAM for           addusdens:     358.47 MB

     Dynamical RAM for          addusforce:     518.87 MB

     Estimated static dynamical RAM per process >     240.48 MB

     Estimated max dynamical RAM per process >     806.75 MB

     Estimated total dynamical RAM >      28.36 GB

     Atomic positions and unit cell read from directory:
     ./out/calc.save/
     Atomic positions from file used, from input discarded
 
     Generating pointlists ...
     new r_m :   0.0410 (alat units)  1.3950 (a.u.) for type    1
     new r_m :   0.0410 (alat units)  1.3950 (a.u.) for type    2

     The initial density is read from file :
     ./out/calc.save/charge-density


     negative rho (up, down):  4.853E+00 4.839E+00


---------------------------------------------------------------------------------
Carrying out rVV10 run using the following parameters:
Nqs =      20    Nr_points =    1024   r_max =   100.000
b_value =  6.30000    beta =  0.00901
     q_mesh =  0.00010000  0.00030000  0.00058939  0.00100810
               0.00161396  0.00249058  0.00375900  0.00559430
               0.00824984  0.01209221  0.01765183  0.02569619
               0.03733578  0.05417739  0.07854596  0.11380545
               0.16482331  0.23864234  0.34545298  0.50000000

Gradients computed in Reciprocal space

---------------------------------------------------------------------------------




     ----------------------------------------------------------------

     Non-local correlation energy =              9.203997627087034

     ----------------------------------------------------------------

     Cannot read wfcs: file not found
     Starting wfcs are  661 randomized atomic wfcs

     total cpu time spent up to now is       18.0 secs

     Self-consistent Calculation

     iteration #  1     ecut=    60.00 Ry     beta= 0.20
     CG style diagonalization

---- Real-time Memory Report at c_bands before calling an iterative solver
             0 MiB given to the printing process from OS
             0 MiB allocation reported by mallinfo(arena+hblkhd)
        172687 MiB available memory on the node where the printing process lives
------------------
     c_bands:  3 eigenvalues not converged
     ethr =  1.00E-05,  avg # of iterations = 11.0

     negative rho (up, down):  4.855E+00 4.841E+00


     ----------------------------------------------------------------

     Non-local correlation energy =              9.202577440809518

     ----------------------------------------------------------------


     total cpu time spent up to now is      811.9 secs

     total energy              =  -11585.82712544 Ry
     estimated scf accuracy    <      20.58326152 Ry

     total magnetization       =     2.00 Bohr mag/cell
     absolute magnetization    =     2.13 Bohr mag/cell

     iteration #  2     ecut=    60.00 Ry     beta= 0.20
     CG style diagonalization

---- Real-time Memory Report at c_bands before calling an iterative solver
             0 MiB given to the printing process from OS
             0 MiB allocation reported by mallinfo(arena+hblkhd)
        171169 MiB available memory on the node where the printing process lives
------------------
     ethr =  2.34E-03,  avg # of iterations =  3.3

     negative rho (up, down):  4.851E+00 4.837E+00


     ----------------------------------------------------------------

     Non-local correlation energy =              9.199871328957745

     ----------------------------------------------------------------


     total cpu time spent up to now is     1013.7 secs

     total energy              =  -11581.88528081 Ry
     estimated scf accuracy    <     262.77363957 Ry

     total magnetization       =     0.42 Bohr mag/cell
     absolute magnetization    =     0.63 Bohr mag/cell

     iteration #  3     ecut=    60.00 Ry     beta= 0.20
     CG style diagonalization

---- Real-time Memory Report at c_bands before calling an iterative solver
             0 MiB given to the printing process from OS
             0 MiB allocation reported by mallinfo(arena+hblkhd)
        171062 MiB available memory on the node where the printing process lives
------------------
     ethr =  2.34E-03,  avg # of iterations =  3.2

     negative rho (up, down):  4.851E+00 4.837E+00


     ----------------------------------------------------------------

     Non-local correlation energy =              9.199987781960894

     ----------------------------------------------------------------


     total cpu time spent up to now is     1206.6 secs

     total energy              =  -11590.44301304 Ry
     estimated scf accuracy    <      28.09645104 Ry

     total magnetization       =     1.11 Bohr mag/cell
     absolute magnetization    =     1.27 Bohr mag/cell

     iteration #  4     ecut=    60.00 Ry     beta= 0.20
     CG style diagonalization

---- Real-time Memory Report at c_bands before calling an iterative solver
             0 MiB given to the printing process from OS
             0 MiB allocation reported by mallinfo(arena+hblkhd)
        170961 MiB available memory on the node where the printing process lives
------------------
     ethr =  2.34E-03,  avg # of iterations =  3.0

     negative rho (up, down):  4.851E+00 4.837E+00


     ----------------------------------------------------------------

     Non-local correlation energy =              9.200140274471469

     ----------------------------------------------------------------


     total cpu time spent up to now is     1383.2 secs

     total energy              =  -11591.22147563 Ry
     estimated scf accuracy    <      20.59109132 Ry

     total magnetization       =     1.46 Bohr mag/cell
     absolute magnetization    =     1.61 Bohr mag/cell

     iteration #  5     ecut=    60.00 Ry     beta= 0.20
     CG style diagonalization

---- Real-time Memory Report at c_bands before calling an iterative solver
             0 MiB given to the printing process from OS
             0 MiB allocation reported by mallinfo(arena+hblkhd)
        170863 MiB available memory on the node where the printing process lives
------------------
     ethr =  2.34E-03,  avg # of iterations =  3.0

     negative rho (up, down):  4.851E+00 4.837E+00


     ----------------------------------------------------------------

     Non-local correlation energy =              9.200327198353275

     ----------------------------------------------------------------


     total cpu time spent up to now is     1560.5 secs

     total energy              =  -11591.45159684 Ry
     estimated scf accuracy    <       1.73039582 Ry

     total magnetization       =     1.81 Bohr mag/cell
     absolute magnetization    =     1.94 Bohr mag/cell

     iteration #  6     ecut=    60.00 Ry     beta= 0.20
     CG style diagonalization

---- Real-time Memory Report at c_bands before calling an iterative solver
             0 MiB given to the printing process from OS
             0 MiB allocation reported by mallinfo(arena+hblkhd)
        170756 MiB available memory on the node where the printing process lives
------------------
     ethr =  1.96E-04,  avg # of iterations =  3.2

     negative rho (up, down):  4.850E+00 4.837E+00


     ----------------------------------------------------------------

     Non-local correlation energy =              9.200696258834807

     ----------------------------------------------------------------


     total cpu time spent up to now is     1750.7 secs

     total energy              =  -11591.39025482 Ry
     estimated scf accuracy    <       3.17114783 Ry

     total magnetization       =     1.63 Bohr mag/cell
     absolute magnetization    =     1.77 Bohr mag/cell

     iteration #  7     ecut=    60.00 Ry     beta= 0.20
     CG style diagonalization

---- Real-time Memory Report at c_bands before calling an iterative solver
             0 MiB given to the printing process from OS
             0 MiB allocation reported by mallinfo(arena+hblkhd)
        170646 MiB available memory on the node where the printing process lives
------------------
     ethr =  1.96E-04,  avg # of iterations =  3.0

     negative rho (up, down):  4.850E+00 4.837E+00


     ----------------------------------------------------------------

     Non-local correlation energy =              9.200968047622922

     ----------------------------------------------------------------


     total cpu time spent up to now is     1927.3 secs

     total energy              =  -11591.41042998 Ry
     estimated scf accuracy    <       2.48859298 Ry

     total magnetization       =     1.68 Bohr mag/cell
     absolute magnetization    =     1.81 Bohr mag/cell

     iteration #  8     ecut=    60.00 Ry     beta= 0.20
     CG style diagonalization

---- Real-time Memory Report at c_bands before calling an iterative solver
             0 MiB given to the printing process from OS
             0 MiB allocation reported by mallinfo(arena+hblkhd)
        170552 MiB available memory on the node where the printing process lives
------------------
     ethr =  1.96E-04,  avg # of iterations =  3.0

     negative rho (up, down):  4.850E+00 4.838E+00


     ----------------------------------------------------------------

     Non-local correlation energy =              9.201130411396266

     ----------------------------------------------------------------


     total cpu time spent up to now is     2103.8 secs

     total energy              =  -11591.38069944 Ry
     estimated scf accuracy    <       8.10344083 Ry

     total magnetization       =     1.51 Bohr mag/cell
     absolute magnetization    =     1.64 Bohr mag/cell

     iteration #  9     ecut=    60.00 Ry     beta= 0.20
     CG style diagonalization

---- Real-time Memory Report at c_bands before calling an iterative solver
             0 MiB given to the printing process from OS
             0 MiB allocation reported by mallinfo(arena+hblkhd)
        170461 MiB available memory on the node where the printing process lives
------------------
     ethr =  1.96E-04,  avg # of iterations =  3.0

     negative rho (up, down):  4.850E+00 4.838E+00


     ----------------------------------------------------------------

     Non-local correlation energy =              9.201186167773724

     ----------------------------------------------------------------


     total cpu time spent up to now is     2280.4 secs

     total energy              =  -11591.49568395 Ry
     estimated scf accuracy    <       0.36243803 Ry

     total magnetization       =     1.63 Bohr mag/cell
     absolute magnetization    =     1.76 Bohr mag/cell

     iteration # 10     ecut=    60.00 Ry     beta= 0.20
     CG style diagonalization

---- Real-time Memory Report at c_bands before calling an iterative solver
             0 MiB given to the printing process from OS
             0 MiB allocation reported by mallinfo(arena+hblkhd)
        170366 MiB available memory on the node where the printing process lives
------------------
     ethr =  4.11E-05,  avg # of iterations =  3.0

     negative rho (up, down):  4.850E+00 4.837E+00


     ----------------------------------------------------------------

     Non-local correlation energy =              9.201153106733106

     ----------------------------------------------------------------


     total cpu time spent up to now is     2458.4 secs

     total energy              =  -11591.49234894 Ry
     estimated scf accuracy    <       0.27409132 Ry

     total magnetization       =     1.64 Bohr mag/cell
     absolute magnetization    =     1.76 Bohr mag/cell

     iteration # 11     ecut=    60.00 Ry     beta= 0.20
     CG style diagonalization

---- Real-time Memory Report at c_bands before calling an iterative solver
             0 MiB given to the printing process from OS
             0 MiB allocation reported by mallinfo(arena+hblkhd)
        170362 MiB available memory on the node where the printing process lives
------------------
     ethr =  3.11E-05,  avg # of iterations =  3.0

     negative rho (up, down):  4.850E+00 4.837E+00


     ----------------------------------------------------------------

     Non-local correlation energy =              9.201215681401546

     ----------------------------------------------------------------


     total cpu time spent up to now is     2635.7 secs

     total energy              =  -11591.48328793 Ry
     estimated scf accuracy    <       1.11577635 Ry

     total magnetization       =     1.68 Bohr mag/cell
     absolute magnetization    =     1.80 Bohr mag/cell

     iteration # 12     ecut=    60.00 Ry     beta= 0.20
     CG style diagonalization

---- Real-time Memory Report at c_bands before calling an iterative solver
             0 MiB given to the printing process from OS
             0 MiB allocation reported by mallinfo(arena+hblkhd)
        170369 MiB available memory on the node where the printing process lives
------------------
     ethr =  3.11E-05,  avg # of iterations =  3.0

     negative rho (up, down):  4.850E+00 4.837E+00


     ----------------------------------------------------------------

     Non-local correlation energy =              9.201315421406672

     ----------------------------------------------------------------


     total cpu time spent up to now is     2812.2 secs

     total energy              =  -11591.49828386 Ry
     estimated scf accuracy    <       0.26362396 Ry

     total magnetization       =     1.67 Bohr mag/cell
     absolute magnetization    =     1.79 Bohr mag/cell

     iteration # 13     ecut=    60.00 Ry     beta= 0.20
     CG style diagonalization

---- Real-time Memory Report at c_bands before calling an iterative solver
             0 MiB given to the printing process from OS
             0 MiB allocation reported by mallinfo(arena+hblkhd)
        170372 MiB available memory on the node where the printing process lives
------------------
     ethr =  2.99E-05,  avg # of iterations =  3.0

     negative rho (up, down):  4.850E+00 4.837E+00


     ----------------------------------------------------------------

     Non-local correlation energy =              9.201472768323487

     ----------------------------------------------------------------


     total cpu time spent up to now is     2988.8 secs

     total energy              =  -11591.50125350 Ry
     estimated scf accuracy    <       0.03593237 Ry

     total magnetization       =     1.66 Bohr mag/cell
     absolute magnetization    =     1.78 Bohr mag/cell

     iteration # 14     ecut=    60.00 Ry     beta= 0.20
     CG style diagonalization

---- Real-time Memory Report at c_bands before calling an iterative solver
             0 MiB given to the printing process from OS
             0 MiB allocation reported by mallinfo(arena+hblkhd)
        170371 MiB available memory on the node where the printing process lives
------------------
     ethr =  4.08E-06,  avg # of iterations =  3.1

     negative rho (up, down):  4.850E+00 4.837E+00


     ----------------------------------------------------------------

     Non-local correlation energy =              9.201529230768784

     ----------------------------------------------------------------


     total cpu time spent up to now is     3177.4 secs

     total energy              =  -11591.49883488 Ry
     estimated scf accuracy    <       0.20370530 Ry

     total magnetization       =     1.62 Bohr mag/cell
     absolute magnetization    =     1.74 Bohr mag/cell

     iteration # 15     ecut=    60.00 Ry     beta= 0.20
     CG style diagonalization

---- Real-time Memory Report at c_bands before calling an iterative solver
             0 MiB given to the printing process from OS
             0 MiB allocation reported by mallinfo(arena+hblkhd)
        170368 MiB available memory on the node where the printing process lives
------------------
     ethr =  4.08E-06,  avg # of iterations =  3.0

     negative rho (up, down):  4.850E+00 4.838E+00


     ----------------------------------------------------------------

     Non-local correlation energy =              9.201701377161152

     ----------------------------------------------------------------


     total cpu time spent up to now is     3354.1 secs

     total energy              =  -11591.50181021 Ry
     estimated scf accuracy    <       0.02845264 Ry

     total magnetization       =     1.64 Bohr mag/cell
     absolute magnetization    =     1.76 Bohr mag/cell

     iteration # 16     ecut=    60.00 Ry     beta= 0.20
     CG style diagonalization

---- Real-time Memory Report at c_bands before calling an iterative solver
             0 MiB given to the printing process from OS
             0 MiB allocation reported by mallinfo(arena+hblkhd)
        170364 MiB available memory on the node where the printing process lives
------------------
     ethr =  3.23E-06,  avg # of iterations =  3.0

     negative rho (up, down):  4.850E+00 4.838E+00


     ----------------------------------------------------------------

     Non-local correlation energy =              9.201886900486187

     ----------------------------------------------------------------


     total cpu time spent up to now is     3531.8 secs

     total energy              =  -11591.50060531 Ry
     estimated scf accuracy    <       0.04278416 Ry

     total magnetization       =     1.63 Bohr mag/cell
     absolute magnetization    =     1.75 Bohr mag/cell

     iteration # 17     ecut=    60.00 Ry     beta= 0.20
     CG style diagonalization

---- Real-time Memory Report at c_bands before calling an iterative solver
             0 MiB given to the printing process from OS
             0 MiB allocation reported by mallinfo(arena+hblkhd)
        170366 MiB available memory on the node where the printing process lives
------------------
     ethr =  3.23E-06,  avg # of iterations =  3.0

     negative rho (up, down):  4.850E+00 4.838E+00


     ----------------------------------------------------------------

     Non-local correlation energy =              9.202059790277755

     ----------------------------------------------------------------


     total cpu time spent up to now is     3708.3 secs

     total energy              =  -11591.50112384 Ry
     estimated scf accuracy    <       0.01817548 Ry

     total magnetization       =     1.61 Bohr mag/cell
     absolute magnetization    =     1.73 Bohr mag/cell

     iteration # 18     ecut=    60.00 Ry     beta= 0.20
     CG style diagonalization

---- Real-time Memory Report at c_bands before calling an iterative solver
             0 MiB given to the printing process from OS
             0 MiB allocation reported by mallinfo(arena+hblkhd)
        170364 MiB available memory on the node where the printing process lives
------------------
     c_bands:  1 eigenvalues not converged
     ethr =  2.06E-06,  avg # of iterations =  3.0

     negative rho (up, down):  4.850E+00 4.838E+00


     ----------------------------------------------------------------

     Non-local correlation energy =              9.202005729630955

     ----------------------------------------------------------------


     total cpu time spent up to now is     3886.3 secs

     total energy              =  -11591.50100971 Ry
     estimated scf accuracy    <       0.03055599 Ry

     total magnetization       =     1.61 Bohr mag/cell
     absolute magnetization    =     1.72 Bohr mag/cell

     iteration # 19     ecut=    60.00 Ry     beta= 0.20
     CG style diagonalization

---- Real-time Memory Report at c_bands before calling an iterative solver
             0 MiB given to the printing process from OS
             0 MiB allocation reported by mallinfo(arena+hblkhd)
        170356 MiB available memory on the node where the printing process lives
------------------
     c_bands:  1 eigenvalues not converged
     ethr =  2.06E-06,  avg # of iterations =  3.0

     negative rho (up, down):  4.850E+00 4.838E+00


     ----------------------------------------------------------------

     Non-local correlation energy =              9.202128766667448

     ----------------------------------------------------------------


     total cpu time spent up to now is     4064.6 secs

     total energy              =  -11591.50083595 Ry
     estimated scf accuracy    <       0.03407310 Ry

     total magnetization       =     1.60 Bohr mag/cell
     absolute magnetization    =     1.72 Bohr mag/cell

     iteration # 20     ecut=    60.00 Ry     beta= 0.20
     CG style diagonalization

---- Real-time Memory Report at c_bands before calling an iterative solver
             0 MiB given to the printing process from OS
             0 MiB allocation reported by mallinfo(arena+hblkhd)
        170357 MiB available memory on the node where the printing process lives
------------------
     ethr =  2.06E-06,  avg # of iterations =  3.0

     negative rho (up, down):  4.850E+00 4.838E+00


     ----------------------------------------------------------------

     Non-local correlation energy =              9.202230737319644

     ----------------------------------------------------------------


     total cpu time spent up to now is     4242.0 secs

     total energy              =  -11591.50120402 Ry
     estimated scf accuracy    <       0.01211548 Ry

     total magnetization       =     1.59 Bohr mag/cell
     absolute magnetization    =     1.71 Bohr mag/cell

     iteration # 21     ecut=    60.00 Ry     beta= 0.20
     CG style diagonalization

---- Real-time Memory Report at c_bands before calling an iterative solver
             0 MiB given to the printing process from OS
             0 MiB allocation reported by mallinfo(arena+hblkhd)
        170369 MiB available memory on the node where the printing process lives
------------------
     ethr =  1.38E-06,  avg # of iterations =  3.0

     negative rho (up, down):  4.850E+00 4.838E+00


     ----------------------------------------------------------------

     Non-local correlation energy =              9.202212199192127

     ----------------------------------------------------------------


     total cpu time spent up to now is     4418.5 secs

     total energy              =  -11591.50147461 Ry
     estimated scf accuracy    <       0.00503257 Ry

     total magnetization       =     1.58 Bohr mag/cell
     absolute magnetization    =     1.69 Bohr mag/cell

     iteration # 22     ecut=    60.00 Ry     beta= 0.20
     CG style diagonalization

---- Real-time Memory Report at c_bands before calling an iterative solver
             0 MiB given to the printing process from OS
             0 MiB allocation reported by mallinfo(arena+hblkhd)
        170364 MiB available memory on the node where the printing process lives
------------------
     ethr =  5.71E-07,  avg # of iterations =  3.0

     negative rho (up, down):  4.850E+00 4.838E+00


     ----------------------------------------------------------------

     Non-local correlation energy =              9.202197500364036

     ----------------------------------------------------------------


     total cpu time spent up to now is     4595.1 secs

     total energy              =  -11591.50136266 Ry
     estimated scf accuracy    <       0.01647846 Ry

     total magnetization       =     1.58 Bohr mag/cell
     absolute magnetization    =     1.69 Bohr mag/cell

     iteration # 23     ecut=    60.00 Ry     beta= 0.20
     CG style diagonalization

---- Real-time Memory Report at c_bands before calling an iterative solver
             0 MiB given to the printing process from OS
             0 MiB allocation reported by mallinfo(arena+hblkhd)
        170368 MiB available memory on the node where the printing process lives
------------------
     ethr =  5.71E-07,  avg # of iterations =  3.0

     negative rho (up, down):  4.850E+00 4.838E+00


     ----------------------------------------------------------------

     Non-local correlation energy =              9.202240208853400

     ----------------------------------------------------------------


     total cpu time spent up to now is     4771.7 secs

     total energy              =  -11591.50155021 Ry
     estimated scf accuracy    <       0.00192068 Ry

     total magnetization       =     1.57 Bohr mag/cell
     absolute magnetization    =     1.69 Bohr mag/cell

     iteration # 24     ecut=    60.00 Ry     beta= 0.20
     CG style diagonalization

---- Real-time Memory Report at c_bands before calling an iterative solver
             0 MiB given to the printing process from OS
             0 MiB allocation reported by mallinfo(arena+hblkhd)
        170376 MiB available memory on the node where the printing process lives
------------------
     ethr =  2.18E-07,  avg # of iterations =  3.0

     negative rho (up, down):  4.850E+00 4.838E+00


     ----------------------------------------------------------------

     Non-local correlation energy =              9.202233094396401

     ----------------------------------------------------------------


     total cpu time spent up to now is     4948.2 secs

     total energy              =  -11591.50152858 Ry
     estimated scf accuracy    <       0.00342904 Ry

     total magnetization       =     1.56 Bohr mag/cell
     absolute magnetization    =     1.68 Bohr mag/cell

     iteration # 25     ecut=    60.00 Ry     beta= 0.20
     CG style diagonalization

---- Real-time Memory Report at c_bands before calling an iterative solver
             0 MiB given to the printing process from OS
             0 MiB allocation reported by mallinfo(arena+hblkhd)
        170375 MiB available memory on the node where the printing process lives
------------------
     ethr =  2.18E-07,  avg # of iterations =  3.0

     negative rho (up, down):  4.850E+00 4.838E+00


     ----------------------------------------------------------------

     Non-local correlation energy =              9.202241883855937

     ----------------------------------------------------------------


     total cpu time spent up to now is     5125.3 secs

     total energy              =  -11591.50154350 Ry
     estimated scf accuracy    <       0.00454116 Ry

     total magnetization       =     1.56 Bohr mag/cell
     absolute magnetization    =     1.67 Bohr mag/cell

     iteration # 26     ecut=    60.00 Ry     beta= 0.20
     CG style diagonalization

---- Real-time Memory Report at c_bands before calling an iterative solver
             0 MiB given to the printing process from OS
             0 MiB allocation reported by mallinfo(arena+hblkhd)
        170370 MiB available memory on the node where the printing process lives
------------------
     ethr =  2.18E-07,  avg # of iterations =  3.0

     negative rho (up, down):  4.850E+00 4.838E+00


     ----------------------------------------------------------------

     Non-local correlation energy =              9.202233457959501

     ----------------------------------------------------------------


     total cpu time spent up to now is     5302.1 secs

     total energy              =  -11591.50159729 Ry
     estimated scf accuracy    <       0.00096479 Ry

     total magnetization       =     1.56 Bohr mag/cell
     absolute magnetization    =     1.67 Bohr mag/cell

     iteration # 27     ecut=    60.00 Ry     beta= 0.20
     CG style diagonalization

---- Real-time Memory Report at c_bands before calling an iterative solver
             0 MiB given to the printing process from OS
             0 MiB allocation reported by mallinfo(arena+hblkhd)
        170366 MiB available memory on the node where the printing process lives
------------------
     ethr =  1.10E-07,  avg # of iterations =  3.0

     negative rho (up, down):  4.850E+00 4.838E+00


     ----------------------------------------------------------------

     Non-local correlation energy =              9.202233728331787

     ----------------------------------------------------------------


     total cpu time spent up to now is     5478.6 secs

     total energy              =  -11591.50161706 Ry
     estimated scf accuracy    <       0.00061276 Ry

     total magnetization       =     1.56 Bohr mag/cell
     absolute magnetization    =     1.67 Bohr mag/cell

     iteration # 28     ecut=    60.00 Ry     beta= 0.20
     CG style diagonalization

---- Real-time Memory Report at c_bands before calling an iterative solver
             0 MiB given to the printing process from OS
             0 MiB allocation reported by mallinfo(arena+hblkhd)
        170370 MiB available memory on the node where the printing process lives
------------------
     ethr =  6.96E-08,  avg # of iterations =  3.0

     negative rho (up, down):  4.850E+00 4.838E+00


     ----------------------------------------------------------------

     Non-local correlation energy =              9.202238061133839

     ----------------------------------------------------------------


     total cpu time spent up to now is     5655.2 secs

     total energy              =  -11591.50161329 Ry
     estimated scf accuracy    <       0.00067167 Ry

     total magnetization       =     1.55 Bohr mag/cell
     absolute magnetization    =     1.66 Bohr mag/cell

     iteration # 29     ecut=    60.00 Ry     beta= 0.20
     CG style diagonalization

---- Real-time Memory Report at c_bands before calling an iterative solver
             0 MiB given to the printing process from OS
             0 MiB allocation reported by mallinfo(arena+hblkhd)
        170377 MiB available memory on the node where the printing process lives
------------------
     ethr =  6.96E-08,  avg # of iterations =  3.0

     negative rho (up, down):  4.850E+00 4.839E+00


     ----------------------------------------------------------------

     Non-local correlation energy =              9.202240548928307

     ----------------------------------------------------------------


     total cpu time spent up to now is     5831.7 secs

     total energy              =  -11591.50160809 Ry
     estimated scf accuracy    <       0.00074682 Ry

     total magnetization       =     1.54 Bohr mag/cell
     absolute magnetization    =     1.65 Bohr mag/cell

     iteration # 30     ecut=    60.00 Ry     beta= 0.20
     CG style diagonalization

---- Real-time Memory Report at c_bands before calling an iterative solver
             0 MiB given to the printing process from OS
             0 MiB allocation reported by mallinfo(arena+hblkhd)
        170375 MiB available memory on the node where the printing process lives
------------------
     ethr =  6.96E-08,  avg # of iterations =  3.0

     negative rho (up, down):  4.850E+00 4.839E+00


     ----------------------------------------------------------------

     Non-local correlation energy =              9.202240703250808

     ----------------------------------------------------------------


     total cpu time spent up to now is     6008.3 secs

     total energy              =  -11591.50161775 Ry
     estimated scf accuracy    <       0.00023399 Ry

     total magnetization       =     1.53 Bohr mag/cell
     absolute magnetization    =     1.65 Bohr mag/cell

     iteration # 31     ecut=    60.00 Ry     beta= 0.20
     CG style diagonalization

---- Real-time Memory Report at c_bands before calling an iterative solver
             0 MiB given to the printing process from OS
             0 MiB allocation reported by mallinfo(arena+hblkhd)
        170370 MiB available memory on the node where the printing process lives
------------------
     ethr =  2.66E-08,  avg # of iterations =  3.0

     negative rho (up, down):  4.850E+00 4.839E+00


     ----------------------------------------------------------------

     Non-local correlation energy =              9.202243302817998

     ----------------------------------------------------------------


     total cpu time spent up to now is     6185.1 secs

     total energy              =  -11591.50161902 Ry
     estimated scf accuracy    <       0.00020315 Ry

     total magnetization       =     1.53 Bohr mag/cell
     absolute magnetization    =     1.65 Bohr mag/cell

     iteration # 32     ecut=    60.00 Ry     beta= 0.20
     CG style diagonalization

---- Real-time Memory Report at c_bands before calling an iterative solver
             0 MiB given to the printing process from OS
             0 MiB allocation reported by mallinfo(arena+hblkhd)
        170374 MiB available memory on the node where the printing process lives
------------------
     ethr =  2.31E-08,  avg # of iterations =  3.0

     negative rho (up, down):  4.850E+00 4.839E+00


     ----------------------------------------------------------------

     Non-local correlation energy =              9.202244595513321

     ----------------------------------------------------------------


     total cpu time spent up to now is     6361.7 secs

     total energy              =  -11591.50160974 Ry
     estimated scf accuracy    <       0.00079218 Ry

     total magnetization       =     1.53 Bohr mag/cell
     absolute magnetization    =     1.64 Bohr mag/cell

     iteration # 33     ecut=    60.00 Ry     beta= 0.20
     CG style diagonalization

---- Real-time Memory Report at c_bands before calling an iterative solver
             0 MiB given to the printing process from OS
             0 MiB allocation reported by mallinfo(arena+hblkhd)
        170374 MiB available memory on the node where the printing process lives
------------------
     ethr =  2.31E-08,  avg # of iterations =  3.0

     negative rho (up, down):  4.850E+00 4.839E+00


     ----------------------------------------------------------------

     Non-local correlation energy =              9.202246729979585

     ----------------------------------------------------------------


     total cpu time spent up to now is     6538.2 secs

     total energy              =  -11591.50161831 Ry
     estimated scf accuracy    <       0.00013881 Ry

     total magnetization       =     1.52 Bohr mag/cell
     absolute magnetization    =     1.63 Bohr mag/cell

     iteration # 34     ecut=    60.00 Ry     beta= 0.20
     CG style diagonalization

---- Real-time Memory Report at c_bands before calling an iterative solver
             0 MiB given to the printing process from OS
             0 MiB allocation reported by mallinfo(arena+hblkhd)
        170373 MiB available memory on the node where the printing process lives
------------------
     ethr =  1.58E-08,  avg # of iterations =  3.0

     negative rho (up, down):  4.850E+00 4.839E+00


     ----------------------------------------------------------------

     Non-local correlation energy =              9.202248725243351

     ----------------------------------------------------------------


     total cpu time spent up to now is     6714.8 secs

     total energy              =  -11591.50161751 Ry
     estimated scf accuracy    <       0.00015447 Ry

     total magnetization       =     1.51 Bohr mag/cell
     absolute magnetization    =     1.62 Bohr mag/cell

     iteration # 35     ecut=    60.00 Ry     beta= 0.20
     CG style diagonalization

---- Real-time Memory Report at c_bands before calling an iterative solver
             0 MiB given to the printing process from OS
             0 MiB allocation reported by mallinfo(arena+hblkhd)
        170371 MiB available memory on the node where the printing process lives
------------------
     ethr =  1.58E-08,  avg # of iterations =  3.0

     negative rho (up, down):  4.850E+00 4.839E+00


     ----------------------------------------------------------------

     Non-local correlation energy =              9.202249270931517

     ----------------------------------------------------------------


     total cpu time spent up to now is     6891.2 secs

     total energy              =  -11591.50161247 Ry
     estimated scf accuracy    <       0.00057669 Ry

     total magnetization       =     1.51 Bohr mag/cell
     absolute magnetization    =     1.62 Bohr mag/cell

     iteration # 36     ecut=    60.00 Ry     beta= 0.20
     CG style diagonalization

---- Real-time Memory Report at c_bands before calling an iterative solver
             0 MiB given to the printing process from OS
             0 MiB allocation reported by mallinfo(arena+hblkhd)
        170372 MiB available memory on the node where the printing process lives
------------------
     ethr =  1.58E-08,  avg # of iterations =  3.0

     negative rho (up, down):  4.850E+00 4.839E+00


     ----------------------------------------------------------------

     Non-local correlation energy =              9.202249041436499

     ----------------------------------------------------------------


     total cpu time spent up to now is     7067.8 secs

     total energy              =  -11591.50161900 Ry
     estimated scf accuracy    <       0.00008613 Ry

     total magnetization       =     1.51 Bohr mag/cell
     absolute magnetization    =     1.62 Bohr mag/cell

     iteration # 37     ecut=    60.00 Ry     beta= 0.20
     CG style diagonalization

---- Real-time Memory Report at c_bands before calling an iterative solver
             0 MiB given to the printing process from OS
             0 MiB allocation reported by mallinfo(arena+hblkhd)
        170382 MiB available memory on the node where the printing process lives
------------------
     ethr =  9.78E-09,  avg # of iterations =  3.0

     negative rho (up, down):  4.850E+00 4.839E+00


     ----------------------------------------------------------------

     Non-local correlation energy =              9.202249193282880

     ----------------------------------------------------------------


     total cpu time spent up to now is     7244.5 secs

     total energy              =  -11591.50161838 Ry
     estimated scf accuracy    <       0.00014059 Ry

     total magnetization       =     1.50 Bohr mag/cell
     absolute magnetization    =     1.61 Bohr mag/cell

     iteration # 38     ecut=    60.00 Ry     beta= 0.20
     CG style diagonalization

---- Real-time Memory Report at c_bands before calling an iterative solver
             0 MiB given to the printing process from OS
             0 MiB allocation reported by mallinfo(arena+hblkhd)
        170371 MiB available memory on the node where the printing process lives
------------------
     ethr =  9.78E-09,  avg # of iterations =  3.0

     negative rho (up, down):  4.850E+00 4.839E+00


     ----------------------------------------------------------------

     Non-local correlation energy =              9.202252525920244

     ----------------------------------------------------------------


     total cpu time spent up to now is     7421.1 secs

     total energy              =  -11591.50161929 Ry
     estimated scf accuracy    <       0.00015721 Ry

     total magnetization       =     1.50 Bohr mag/cell
     absolute magnetization    =     1.61 Bohr mag/cell

     iteration # 39     ecut=    60.00 Ry     beta= 0.20
     CG style diagonalization

---- Real-time Memory Report at c_bands before calling an iterative solver
             0 MiB given to the printing process from OS
             0 MiB allocation reported by mallinfo(arena+hblkhd)
        170370 MiB available memory on the node where the printing process lives
------------------
     ethr =  9.78E-09,  avg # of iterations =  3.0

     negative rho (up, down):  4.850E+00 4.839E+00


     ----------------------------------------------------------------

     Non-local correlation energy =              9.202253620823354

     ----------------------------------------------------------------


     total cpu time spent up to now is     7597.7 secs

     total energy              =  -11591.50162055 Ry
     estimated scf accuracy    <       0.00009060 Ry

     total magnetization       =     1.49 Bohr mag/cell
     absolute magnetization    =     1.60 Bohr mag/cell

     iteration # 40     ecut=    60.00 Ry     beta= 0.20
     CG style diagonalization

---- Real-time Memory Report at c_bands before calling an iterative solver
             0 MiB given to the printing process from OS
             0 MiB allocation reported by mallinfo(arena+hblkhd)
        170367 MiB available memory on the node where the printing process lives
------------------
     ethr =  9.78E-09,  avg # of iterations =  3.0

     negative rho (up, down):  4.850E+00 4.839E+00


     ----------------------------------------------------------------

     Non-local correlation energy =              9.202252324425569

     ----------------------------------------------------------------


     total cpu time spent up to now is     7774.3 secs

     total energy              =  -11591.50162151 Ry
     estimated scf accuracy    <       0.00002738 Ry

     total magnetization       =     1.49 Bohr mag/cell
     absolute magnetization    =     1.59 Bohr mag/cell

     iteration # 41     ecut=    60.00 Ry     beta= 0.20
     CG style diagonalization

---- Real-time Memory Report at c_bands before calling an iterative solver
             0 MiB given to the printing process from OS
             0 MiB allocation reported by mallinfo(arena+hblkhd)
        170367 MiB available memory on the node where the printing process lives
------------------
     ethr =  3.11E-09,  avg # of iterations =  3.0

     negative rho (up, down):  4.850E+00 4.839E+00


     ----------------------------------------------------------------

     Non-local correlation energy =              9.202254099379974

     ----------------------------------------------------------------


     total cpu time spent up to now is     7950.9 secs

     total energy              =  -11591.50162184 Ry
     estimated scf accuracy    <       0.00003937 Ry

     total magnetization       =     1.49 Bohr mag/cell
     absolute magnetization    =     1.60 Bohr mag/cell

     iteration # 42     ecut=    60.00 Ry     beta= 0.20
     CG style diagonalization

---- Real-time Memory Report at c_bands before calling an iterative solver
             0 MiB given to the printing process from OS
             0 MiB allocation reported by mallinfo(arena+hblkhd)
        170365 MiB available memory on the node where the printing process lives
------------------
     ethr =  3.11E-09,  avg # of iterations =  3.0

     negative rho (up, down):  4.850E+00 4.839E+00


     ----------------------------------------------------------------

     Non-local correlation energy =              9.202254792852511

     ----------------------------------------------------------------


     total cpu time spent up to now is     8127.5 secs

     total energy              =  -11591.50162155 Ry
     estimated scf accuracy    <       0.00007560 Ry

     total magnetization       =     1.48 Bohr mag/cell
     absolute magnetization    =     1.59 Bohr mag/cell

     iteration # 43     ecut=    60.00 Ry     beta= 0.20
     CG style diagonalization

---- Real-time Memory Report at c_bands before calling an iterative solver
             0 MiB given to the printing process from OS
             0 MiB allocation reported by mallinfo(arena+hblkhd)
        170356 MiB available memory on the node where the printing process lives
------------------
     ethr =  3.11E-09,  avg # of iterations =  3.0

     negative rho (up, down):  4.850E+00 4.839E+00


     ----------------------------------------------------------------

     Non-local correlation energy =              9.202255395848510

     ----------------------------------------------------------------


     total cpu time spent up to now is     8304.2 secs

     total energy              =  -11591.50162253 Ry
     estimated scf accuracy    <       0.00002073 Ry

     total magnetization       =     1.48 Bohr mag/cell
     absolute magnetization    =     1.58 Bohr mag/cell

     iteration # 44     ecut=    60.00 Ry     beta= 0.20
     CG style diagonalization

---- Real-time Memory Report at c_bands before calling an iterative solver
             0 MiB given to the printing process from OS
             0 MiB allocation reported by mallinfo(arena+hblkhd)
        170355 MiB available memory on the node where the printing process lives
------------------
     ethr =  2.35E-09,  avg # of iterations =  3.0

     negative rho (up, down):  4.850E+00 4.839E+00


     ----------------------------------------------------------------

     Non-local correlation energy =              9.202256546145422

     ----------------------------------------------------------------


     total cpu time spent up to now is     8480.8 secs

     total energy              =  -11591.50162304 Ry
     estimated scf accuracy    <       0.00001471 Ry

     total magnetization       =     1.47 Bohr mag/cell
     absolute magnetization    =     1.58 Bohr mag/cell

     iteration # 45     ecut=    60.00 Ry     beta= 0.20
     CG style diagonalization

---- Real-time Memory Report at c_bands before calling an iterative solver
             0 MiB given to the printing process from OS
             0 MiB allocation reported by mallinfo(arena+hblkhd)
        170364 MiB available memory on the node where the printing process lives
------------------
     ethr =  1.67E-09,  avg # of iterations =  3.0

     negative rho (up, down):  4.850E+00 4.839E+00


     ----------------------------------------------------------------

     Non-local correlation energy =              9.202256398584382

     ----------------------------------------------------------------


     total cpu time spent up to now is     8658.1 secs

     total energy              =  -11591.50162266 Ry
     estimated scf accuracy    <       0.00004107 Ry

     total magnetization       =     1.46 Bohr mag/cell
     absolute magnetization    =     1.57 Bohr mag/cell

     iteration # 46     ecut=    60.00 Ry     beta= 0.20
     CG style diagonalization

---- Real-time Memory Report at c_bands before calling an iterative solver
             0 MiB given to the printing process from OS
             0 MiB allocation reported by mallinfo(arena+hblkhd)
        170351 MiB available memory on the node where the printing process lives
------------------
     ethr =  1.67E-09,  avg # of iterations =  3.0

     negative rho (up, down):  4.850E+00 4.839E+00


     ----------------------------------------------------------------

     Non-local correlation energy =              9.202257414119588

     ----------------------------------------------------------------


     total cpu time spent up to now is     8834.6 secs

     total energy              =  -11591.50162335 Ry
     estimated scf accuracy    <       0.00001248 Ry

     total magnetization       =     1.46 Bohr mag/cell
     absolute magnetization    =     1.57 Bohr mag/cell

     iteration # 47     ecut=    60.00 Ry     beta= 0.20
     CG style diagonalization

---- Real-time Memory Report at c_bands before calling an iterative solver
             0 MiB given to the printing process from OS
             0 MiB allocation reported by mallinfo(arena+hblkhd)
        170353 MiB available memory on the node where the printing process lives
------------------
     ethr =  1.42E-09,  avg # of iterations =  3.0

     negative rho (up, down):  4.850E+00 4.839E+00


     ----------------------------------------------------------------

     Non-local correlation energy =              9.202257369670701

     ----------------------------------------------------------------


     total cpu time spent up to now is     9011.1 secs

     total energy              =  -11591.50162326 Ry
     estimated scf accuracy    <       0.00001614 Ry

     total magnetization       =     1.46 Bohr mag/cell
     absolute magnetization    =     1.56 Bohr mag/cell

     iteration # 48     ecut=    60.00 Ry     beta= 0.20
     CG style diagonalization

---- Real-time Memory Report at c_bands before calling an iterative solver
             0 MiB given to the printing process from OS
             0 MiB allocation reported by mallinfo(arena+hblkhd)
        170364 MiB available memory on the node where the printing process lives
------------------
     ethr =  1.42E-09,  avg # of iterations =  3.0

     negative rho (up, down):  4.850E+00 4.839E+00


     ----------------------------------------------------------------

     Non-local correlation energy =              9.202258179485241

     ----------------------------------------------------------------


     total cpu time spent up to now is     9188.6 secs

     total energy              =  -11591.50162353 Ry
     estimated scf accuracy    <       0.00003053 Ry

     total magnetization       =     1.46 Bohr mag/cell
     absolute magnetization    =     1.56 Bohr mag/cell

     iteration # 49     ecut=    60.00 Ry     beta= 0.20
     CG style diagonalization

---- Real-time Memory Report at c_bands before calling an iterative solver
             0 MiB given to the printing process from OS
             0 MiB allocation reported by mallinfo(arena+hblkhd)
        170353 MiB available memory on the node where the printing process lives
------------------
     ethr =  1.42E-09,  avg # of iterations =  3.0

     negative rho (up, down):  4.850E+00 4.839E+00


     ----------------------------------------------------------------

     Non-local correlation energy =              9.202258308756964

     ----------------------------------------------------------------


     total cpu time spent up to now is     9365.1 secs

     total energy              =  -11591.50162402 Ry
     estimated scf accuracy    <       0.00001130 Ry

     total magnetization       =     1.45 Bohr mag/cell
     absolute magnetization    =     1.55 Bohr mag/cell

     iteration # 50     ecut=    60.00 Ry     beta= 0.20
     CG style diagonalization

---- Real-time Memory Report at c_bands before calling an iterative solver
             0 MiB given to the printing process from OS
             0 MiB allocation reported by mallinfo(arena+hblkhd)
        170358 MiB available memory on the node where the printing process lives
------------------
     ethr =  1.28E-09,  avg # of iterations =  3.0

     negative rho (up, down):  4.850E+00 4.839E+00


     ----------------------------------------------------------------

     Non-local correlation energy =              9.202258454071870

     ----------------------------------------------------------------


     total cpu time spent up to now is     9541.6 secs

     total energy              =  -11591.50162420 Ry
     estimated scf accuracy    <       0.00000463 Ry

     total magnetization       =     1.45 Bohr mag/cell
     absolute magnetization    =     1.55 Bohr mag/cell

     iteration # 51     ecut=    60.00 Ry     beta= 0.20
     CG style diagonalization

---- Real-time Memory Report at c_bands before calling an iterative solver
             0 MiB given to the printing process from OS
             0 MiB allocation reported by mallinfo(arena+hblkhd)
        170351 MiB available memory on the node where the printing process lives
------------------
     ethr =  5.25E-10,  avg # of iterations =  3.0

     negative rho (up, down):  4.850E+00 4.839E+00


     ----------------------------------------------------------------

     Non-local correlation energy =              9.202259178087967

     ----------------------------------------------------------------


     total cpu time spent up to now is     9718.1 secs

     total energy              =  -11591.50162451 Ry
     estimated scf accuracy    <       0.00001149 Ry

     total magnetization       =     1.44 Bohr mag/cell
     absolute magnetization    =     1.55 Bohr mag/cell

     iteration # 52     ecut=    60.00 Ry     beta= 0.20
     CG style diagonalization

---- Real-time Memory Report at c_bands before calling an iterative solver
             0 MiB given to the printing process from OS
             0 MiB allocation reported by mallinfo(arena+hblkhd)
        170358 MiB available memory on the node where the printing process lives
------------------
     ethr =  5.25E-10,  avg # of iterations =  3.0

     negative rho (up, down):  4.850E+00 4.839E+00


     ----------------------------------------------------------------

     Non-local correlation energy =              9.202259408569677

     ----------------------------------------------------------------


     total cpu time spent up to now is     9894.6 secs

     total energy              =  -11591.50162475 Ry
     estimated scf accuracy    <       0.00001221 Ry

     total magnetization       =     1.43 Bohr mag/cell
     absolute magnetization    =     1.54 Bohr mag/cell

     iteration # 53     ecut=    60.00 Ry     beta= 0.20
     CG style diagonalization

---- Real-time Memory Report at c_bands before calling an iterative solver
             0 MiB given to the printing process from OS
             0 MiB allocation reported by mallinfo(arena+hblkhd)
        170361 MiB available memory on the node where the printing process lives
------------------
     ethr =  5.25E-10,  avg # of iterations =  3.0

     negative rho (up, down):  4.850E+00 4.839E+00


     ----------------------------------------------------------------

     Non-local correlation energy =              9.202259316723792

     ----------------------------------------------------------------


     total cpu time spent up to now is    10071.1 secs

     total energy              =  -11591.50162490 Ry
     estimated scf accuracy    <       0.00000453 Ry

     total magnetization       =     1.43 Bohr mag/cell
     absolute magnetization    =     1.54 Bohr mag/cell

     iteration # 54     ecut=    60.00 Ry     beta= 0.20
     CG style diagonalization

---- Real-time Memory Report at c_bands before calling an iterative solver
             0 MiB given to the printing process from OS
             0 MiB allocation reported by mallinfo(arena+hblkhd)
        170353 MiB available memory on the node where the printing process lives
------------------
     ethr =  5.14E-10,  avg # of iterations =  3.0

     negative rho (up, down):  4.850E+00 4.839E+00


     ----------------------------------------------------------------

     Non-local correlation energy =              9.202259635120011

     ----------------------------------------------------------------


     total cpu time spent up to now is    10247.7 secs

     total energy              =  -11591.50162519 Ry
     estimated scf accuracy    <       0.00000360 Ry

     total magnetization       =     1.43 Bohr mag/cell
     absolute magnetization    =     1.53 Bohr mag/cell

     iteration # 55     ecut=    60.00 Ry     beta= 0.20
     CG style diagonalization

---- Real-time Memory Report at c_bands before calling an iterative solver
             0 MiB given to the printing process from OS
             0 MiB allocation reported by mallinfo(arena+hblkhd)
        170354 MiB available memory on the node where the printing process lives
------------------
     ethr =  4.09E-10,  avg # of iterations =  3.0

     negative rho (up, down):  4.850E+00 4.839E+00


     ----------------------------------------------------------------

     Non-local correlation energy =              9.202259665599795

     ----------------------------------------------------------------


     total cpu time spent up to now is    10424.3 secs

     total energy              =  -11591.50162523 Ry
     estimated scf accuracy    <       0.00000558 Ry

     total magnetization       =     1.43 Bohr mag/cell
     absolute magnetization    =     1.53 Bohr mag/cell

     iteration # 56     ecut=    60.00 Ry     beta= 0.20
     CG style diagonalization

---- Real-time Memory Report at c_bands before calling an iterative solver
             0 MiB given to the printing process from OS
             0 MiB allocation reported by mallinfo(arena+hblkhd)
        170352 MiB available memory on the node where the printing process lives
------------------
     ethr =  4.09E-10,  avg # of iterations =  3.0

     negative rho (up, down):  4.850E+00 4.839E+00


     ----------------------------------------------------------------

     Non-local correlation energy =              9.202260158035497

     ----------------------------------------------------------------


     total cpu time spent up to now is    10600.8 secs

     total energy              =  -11591.50162574 Ry
     estimated scf accuracy    <       0.00000305 Ry

     total magnetization       =     1.42 Bohr mag/cell
     absolute magnetization    =     1.53 Bohr mag/cell

     iteration # 57     ecut=    60.00 Ry     beta= 0.20
     CG style diagonalization

---- Real-time Memory Report at c_bands before calling an iterative solver
             0 MiB given to the printing process from OS
             0 MiB allocation reported by mallinfo(arena+hblkhd)
        170352 MiB available memory on the node where the printing process lives
------------------
     ethr =  3.47E-10,  avg # of iterations =  3.0

     negative rho (up, down):  4.850E+00 4.839E+00


     ----------------------------------------------------------------

     Non-local correlation energy =              9.202260357885816

     ----------------------------------------------------------------


     total cpu time spent up to now is    10777.4 secs

     total energy              =  -11591.50162600 Ry
     estimated scf accuracy    <       0.00000255 Ry

     total magnetization       =     1.42 Bohr mag/cell
     absolute magnetization    =     1.52 Bohr mag/cell

     iteration # 58     ecut=    60.00 Ry     beta= 0.20
     CG style diagonalization

---- Real-time Memory Report at c_bands before calling an iterative solver
             0 MiB given to the printing process from OS
             0 MiB allocation reported by mallinfo(arena+hblkhd)
        170349 MiB available memory on the node where the printing process lives
------------------
     ethr =  2.89E-10,  avg # of iterations =  3.0

     negative rho (up, down):  4.850E+00 4.839E+00


     ----------------------------------------------------------------

     Non-local correlation energy =              9.202260320361468

     ----------------------------------------------------------------


     total cpu time spent up to now is    10953.9 secs

     total energy              =  -11591.50162596 Ry
     estimated scf accuracy    <       0.00000546 Ry

     total magnetization       =     1.41 Bohr mag/cell
     absolute magnetization    =     1.51 Bohr mag/cell

     iteration # 59     ecut=    60.00 Ry     beta= 0.20
     CG style diagonalization

---- Real-time Memory Report at c_bands before calling an iterative solver
             0 MiB given to the printing process from OS
             0 MiB allocation reported by mallinfo(arena+hblkhd)
        170367 MiB available memory on the node where the printing process lives
------------------
     ethr =  2.89E-10,  avg # of iterations =  3.0

     negative rho (up, down):  4.850E+00 4.839E+00


     ----------------------------------------------------------------

     Non-local correlation energy =              9.202260416087942

     ----------------------------------------------------------------


     total cpu time spent up to now is    11130.5 secs

     total energy              =  -11591.50162617 Ry
     estimated scf accuracy    <       0.00000277 Ry

     total magnetization       =     1.41 Bohr mag/cell
     absolute magnetization    =     1.51 Bohr mag/cell

     iteration # 60     ecut=    60.00 Ry     beta= 0.20
     CG style diagonalization

---- Real-time Memory Report at c_bands before calling an iterative solver
             0 MiB given to the printing process from OS
             0 MiB allocation reported by mallinfo(arena+hblkhd)
        170366 MiB available memory on the node where the printing process lives
------------------
     ethr =  2.89E-10,  avg # of iterations =  3.0

     negative rho (up, down):  4.849E+00 4.839E+00


     ----------------------------------------------------------------

     Non-local correlation energy =              9.202261796229980

     ----------------------------------------------------------------

 
     Magnetic moment per site  (integrated on atomic sphere of radius R)
     atom   1 (R=0.041)  charge=  9.6243  magn=  0.0056
     atom   2 (R=0.041)  charge=  9.6243  magn=  0.0056
     atom   3 (R=0.041)  charge=  9.6250  magn=  0.0082
     atom   4 (R=0.041)  charge=  9.6318  magn=  0.0184
     atom   5 (R=0.041)  charge=  9.6220  magn=  0.0088
     atom   6 (R=0.041)  charge=  9.6220  magn=  0.0088
     atom   7 (R=0.041)  charge=  9.6020  magn=  0.0193
     atom   8 (R=0.041)  charge=  9.6238  magn=  0.0090
     atom   9 (R=0.041)  charge=  9.6278  magn=  0.0205
     atom  10 (R=0.041)  charge=  9.6241  magn=  0.0096
     atom  11 (R=0.041)  charge=  9.6043  magn=  0.0211
     atom  12 (R=0.041)  charge=  9.6243  magn=  0.0111
     atom  13 (R=0.041)  charge=  9.6183  magn=  0.0094
     atom  14 (R=0.041)  charge=  9.6258  magn=  0.0094
     atom  15 (R=0.041)  charge=  9.6047  magn=  0.0195
     atom  16 (R=0.041)  charge=  9.6043  magn=  0.0218
     atom  17 (R=0.041)  charge=  9.6268  magn=  0.0193
     atom  18 (R=0.041)  charge=  9.6245  magn=  0.0113
     atom  19 (R=0.041)  charge=  9.6240  magn=  0.0111
     atom  20 (R=0.041)  charge=  9.6268  magn=  0.0213
     atom  21 (R=0.041)  charge=  9.6244  magn=  0.0104
     atom  22 (R=0.041)  charge=  9.6278  magn=  0.0204
     atom  23 (R=0.041)  charge=  9.6043  magn=  0.0211
     atom  24 (R=0.041)  charge=  9.6241  magn=  0.0096
     atom  25 (R=0.041)  charge=  9.6242  magn=  0.0111
     atom  26 (R=0.041)  charge=  9.6183  magn=  0.0093
     atom  27 (R=0.041)  charge=  9.6047  magn=  0.0194
     atom  28 (R=0.041)  charge=  9.6259  magn=  0.0094
     atom  29 (R=0.041)  charge=  9.6043  magn=  0.0218
     atom  30 (R=0.041)  charge=  9.6269  magn=  0.0193
     atom  31 (R=0.041)  charge=  9.6245  magn=  0.0113
     atom  32 (R=0.041)  charge=  9.6137  magn=  0.0104
     atom  33 (R=0.041)  charge=  9.6054  magn=  0.0263
     atom  34 (R=0.041)  charge=  9.6054  magn=  0.0263
     atom  35 (R=0.041)  charge=  9.6243  magn=  0.0118
     atom  36 (R=0.041)  charge=  9.5642  magn=  0.0193
     atom  37 (R=0.041)  charge=  9.6049  magn=  0.0230
     atom  38 (R=0.041)  charge=  9.6049  magn=  0.0229
     atom  39 (R=0.041)  charge=  9.6046  magn=  0.0265
     atom  40 (R=0.041)  charge=  9.6161  magn=  0.0106
     atom  41 (R=0.041)  charge=  9.6239  magn=  0.0102
     atom  42 (R=0.041)  charge=  9.6271  magn=  0.0249
     atom  43 (R=0.041)  charge=  9.6244  magn=  0.0134
     atom  44 (R=0.041)  charge=  9.6163  magn=  0.0114
     atom  45 (R=0.041)  charge=  9.6241  magn=  0.0118
     atom  46 (R=0.041)  charge=  9.6270  magn=  0.0231
     atom  47 (R=0.041)  charge=  9.6240  magn=  0.0111
     atom  48 (R=0.041)  charge=  9.6268  magn=  0.0213
     atom  49 (R=0.041)  charge=  9.6244  magn=  0.0104
     atom  50 (R=0.041)  charge=  9.6270  magn=  0.0250
     atom  51 (R=0.041)  charge=  9.6244  magn=  0.0134
     atom  52 (R=0.041)  charge=  9.6163  magn=  0.0114
     atom  53 (R=0.041)  charge=  9.6241  magn=  0.0118
     atom  54 (R=0.041)  charge=  9.6270  magn=  0.0230
     atom  55 (R=0.041)  charge=  9.6259  magn=  0.0284
     atom  56 (R=0.041)  charge=  0.9781  magn= -0.0002

     total cpu time spent up to now is    11307.1 secs

     End of self-consistent calculation

 ------ SPIN UP ------------


          k = 0.0000 0.0000 0.0000 (154474 PWs)   bands (ev):

   -55.1895 -55.1831 -55.1816 -54.5086 -54.4936 -54.4751 -54.4734 -54.4728
   -54.4574 -54.4424 -54.4416 -54.4126 -54.4092 -54.4029 -54.3993 -54.3954
   -54.3646 -54.3633 -54.3587 -54.3555 -54.3534 -54.3486 -54.3474 -54.3410
   -54.3407 -54.3005 -54.2981 -54.2770 -54.2750 -54.2661 -54.2632 -54.2554
[...]
     atom   12 type  1   force =     0.00761818   -0.00905983    0.02580660
     atom   13 type  1   force =     0.02969884    0.00027415    0.00082628
     atom   14 type  1   force =     0.02558576   -0.00775497   -0.00832578
     atom   15 type  1   force =    -0.00510584   -0.00017816    0.00454261
     atom   16 type  1   force =    -0.00470089    0.00467306    0.00000078
     atom   17 type  1   force =     0.01205412   -0.00015803   -0.01271595
     atom   18 type  1   force =     0.00759057   -0.00892457   -0.02565143
     atom   19 type  1   force =     0.00870151   -0.02583973    0.00806964
     atom   20 type  1   force =     0.01315369   -0.01274775   -0.00025385
     atom   21 type  1   force =     0.00858345   -0.02544178   -0.00827428
     atom   22 type  1   force =    -0.00044801    0.01224508    0.01349744
     atom   23 type  1   force =     0.00052102   -0.00424390   -0.00443165
     atom   24 type  1   force =    -0.00810265    0.02564469    0.00859045
     atom   25 type  1   force =    -0.00905981    0.00761816    0.02580657
     atom   26 type  1   force =     0.00027416    0.02969886    0.00082628
     atom   27 type  1   force =    -0.00017817   -0.00510585    0.00454263
     atom   28 type  1   force =    -0.00775493    0.02558565   -0.00832575
     atom   29 type  1   force =     0.00467304   -0.00470088    0.00000079
     atom   30 type  1   force =    -0.00015803    0.01205400   -0.01271580
     atom   31 type  1   force =    -0.00892451    0.00759055   -0.02565134
     atom   32 type  1   force =    -0.00036415   -0.00036415    0.03029791
     atom   33 type  1   force =     0.00015339    0.00466189   -0.00467661
     atom   34 type  1   force =     0.00466192    0.00015339   -0.00467659
     atom   35 type  1   force =    -0.00805701   -0.00805700    0.02469953
     atom   36 type  1   force =     0.00041144    0.00041145    0.00029535
     atom   37 type  1   force =    -0.00013953    0.00451836    0.00459777
     atom   38 type  1   force =     0.00451836   -0.00013953    0.00459776
     atom   39 type  1   force =     0.00567757    0.00567758    0.00013299
     atom   40 type  1   force =    -0.00024114   -0.00024112   -0.03086557
     atom   41 type  1   force =    -0.00842540   -0.00842537   -0.02512824
     atom   42 type  1   force =     0.00039721   -0.01321552    0.01355853
     atom   43 type  1   force =    -0.00801510   -0.02589793    0.00826373
     atom   44 type  1   force =     0.00055493   -0.03049520   -0.00013144
     atom   45 type  1   force =    -0.00831310   -0.02562450   -0.00816287
     atom   46 type  1   force =     0.00068667   -0.01208574   -0.01294725
     atom   47 type  1   force =    -0.02583968    0.00870146    0.00806964
     atom   48 type  1   force =    -0.01274750    0.01315346   -0.00025381
     atom   49 type  1   force =    -0.02544172    0.00858341   -0.00827424
     atom   50 type  1   force =    -0.01321544    0.00039722    0.01355846
     atom   51 type  1   force =    -0.02589796   -0.00801508    0.00826374
     atom   52 type  1   force =    -0.03049526    0.00055490   -0.00013146
     atom   53 type  1   force =    -0.02562449   -0.00831312   -0.00816287
     atom   54 type  1   force =    -0.01208561    0.00068668   -0.01294711
     atom   55 type  1   force =    -0.01326569   -0.01326565   -0.00091790
     atom   56 type  2   force =     0.00000000    0.00000000    0.00000000
     The Hubbard contrib.    to forces
     atom    1 type  1   force =     0.00000000    0.00000000    0.00000000
     atom    2 type  1   force =     0.00000000    0.00000000    0.00000000
     atom    3 type  1   force =     0.00000000    0.00000000    0.00000000
     atom    4 type  1   force =     0.00000000    0.00000000    0.00000000
     atom    5 type  1   force =     0.00000000    0.00000000    0.00000000
     atom    6 type  1   force =     0.00000000    0.00000000    0.00000000
     atom    7 type  1   force =     0.00000000    0.00000000    0.00000000
     atom    8 type  1   force =     0.00000000    0.00000000    0.00000000
     atom    9 type  1   force =     0.00000000    0.00000000    0.00000000
     atom   10 type  1   force =     0.00000000    0.00000000    0.00000000
     atom   11 type  1   force =     0.00000000    0.00000000    0.00000000
     atom   12 type  1   force =     0.00000000    0.00000000    0.00000000
     atom   13 type  1   force =     0.00000000    0.00000000    0.00000000
     atom   14 type  1   force =     0.00000000    0.00000000    0.00000000
     atom   15 type  1   force =     0.00000000    0.00000000    0.00000000
     atom   16 type  1   force =     0.00000000    0.00000000    0.00000000
     atom   17 type  1   force =     0.00000000    0.00000000    0.00000000
     atom   18 type  1   force =     0.00000000    0.00000000    0.00000000
     atom   19 type  1   force =     0.00000000    0.00000000    0.00000000
     atom   20 type  1   force =     0.00000000    0.00000000    0.00000000
     atom   21 type  1   force =     0.00000000    0.00000000    0.00000000
     atom   22 type  1   force =     0.00000000    0.00000000    0.00000000
     atom   23 type  1   force =     0.00000000    0.00000000    0.00000000
     atom   24 type  1   force =     0.00000000    0.00000000    0.00000000
     atom   25 type  1   force =     0.00000000    0.00000000    0.00000000
     atom   26 type  1   force =     0.00000000    0.00000000    0.00000000
     atom   27 type  1   force =     0.00000000    0.00000000    0.00000000
     atom   28 type  1   force =     0.00000000    0.00000000    0.00000000
     atom   29 type  1   force =     0.00000000    0.00000000    0.00000000
     atom   30 type  1   force =     0.00000000    0.00000000    0.00000000
     atom   31 type  1   force =     0.00000000    0.00000000    0.00000000
     atom   32 type  1   force =     0.00000000    0.00000000    0.00000000
     atom   33 type  1   force =     0.00000000    0.00000000    0.00000000
     atom   34 type  1   force =     0.00000000    0.00000000    0.00000000
     atom   35 type  1   force =     0.00000000    0.00000000    0.00000000
     atom   36 type  1   force =     0.00000000    0.00000000    0.00000000
     atom   37 type  1   force =     0.00000000    0.00000000    0.00000000
     atom   38 type  1   force =     0.00000000    0.00000000    0.00000000
     atom   39 type  1   force =     0.00000000    0.00000000    0.00000000
     atom   40 type  1   force =     0.00000000    0.00000000    0.00000000
     atom   41 type  1   force =     0.00000000    0.00000000    0.00000000
     atom   42 type  1   force =     0.00000000    0.00000000    0.00000000
     atom   43 type  1   force =     0.00000000    0.00000000    0.00000000
     atom   44 type  1   force =     0.00000000    0.00000000    0.00000000
     atom   45 type  1   force =     0.00000000    0.00000000    0.00000000
     atom   46 type  1   force =     0.00000000    0.00000000    0.00000000
     atom   47 type  1   force =     0.00000000    0.00000000    0.00000000
     atom   48 type  1   force =     0.00000000    0.00000000    0.00000000
     atom   49 type  1   force =     0.00000000    0.00000000    0.00000000
     atom   50 type  1   force =     0.00000000    0.00000000    0.00000000
     atom   51 type  1   force =     0.00000000    0.00000000    0.00000000
     atom   52 type  1   force =     0.00000000    0.00000000    0.00000000
     atom   53 type  1   force =     0.00000000    0.00000000    0.00000000
     atom   54 type  1   force =     0.00000000    0.00000000    0.00000000
     atom   55 type  1   force =     0.00000000    0.00000000    0.00000000
     atom   56 type  2   force =     0.00000000    0.00000000    0.00000000
     The SCF correction term to forces
     atom    1 type  1   force =     0.00000439    0.00001560   -0.00003925
     atom    2 type  1   force =     0.00004047   -0.00000207   -0.00003494
     atom    3 type  1   force =     0.00004025    0.00001916   -0.00002893
     atom    4 type  1   force =     0.00000143   -0.00001304    0.00002211
     atom    5 type  1   force =     0.00001882    0.00002537    0.00007601
     atom    6 type  1   force =     0.00005479    0.00001137    0.00007418
     atom    7 type  1   force =     0.00004851    0.00001385    0.00002084
     atom    8 type  1   force =     0.00000500   -0.00002293    0.00001705
     atom    9 type  1   force =     0.00002467    0.00001536   -0.00002971
     atom   10 type  1   force =     0.00000684    0.00000770   -0.00002262
     atom   11 type  1   force =     0.00002394    0.00001367   -0.00004969
     atom   12 type  1   force =     0.00002205   -0.00000485   -0.00001979
     atom   13 type  1   force =    -0.00000050    0.00002903    0.00002004
     atom   14 type  1   force =    -0.00001323   -0.00001521    0.00003333
     atom   15 type  1   force =    -0.00003613   -0.00003644    0.00004860
     atom   16 type  1   force =    -0.00005552   -0.00002563   -0.00002339
     atom   17 type  1   force =     0.00000499   -0.00001218    0.00002264
     atom   18 type  1   force =    -0.00008548   -0.00005635    0.00001928
     atom   19 type  1   force =    -0.00002959   -0.00001118   -0.00005868
     atom   20 type  1   force =    -0.00002785   -0.00000995   -0.00000293
     atom   21 type  1   force =    -0.00008976   -0.00000744    0.00000235
     atom   22 type  1   force =     0.00003125    0.00002436   -0.00001572
     atom   23 type  1   force =     0.00004666   -0.00000218   -0.00004116
     atom   24 type  1   force =     0.00001486    0.00001813   -0.00000482
     atom   25 type  1   force =     0.00000350    0.00001038   -0.00000134
     atom   26 type  1   force =     0.00005650    0.00000631    0.00002402
     atom   27 type  1   force =     0.00000216   -0.00006668    0.00004454
     atom   28 type  1   force =    -0.00000873    0.00000135    0.00002135
     atom   29 type  1   force =    -0.00000776   -0.00007782   -0.00001789
     atom   30 type  1   force =     0.00000747    0.00000604    0.00000729
     atom   31 type  1   force =    -0.00004654   -0.00009851   -0.00000156
     atom   32 type  1   force =     0.00001740   -0.00000559   -0.00000662
     atom   33 type  1   force =    -0.00002924   -0.00003758   -0.00010777
     atom   34 type  1   force =    -0.00001568   -0.00006224   -0.00009970
     atom   35 type  1   force =    -0.00002106   -0.00003920   -0.00004242
     atom   36 type  1   force =    -0.00002888   -0.00007318   -0.00004705
     atom   37 type  1   force =    -0.00010669   -0.00006946   -0.00000627
     atom   38 type  1   force =    -0.00004320   -0.00014528   -0.00000999
     atom   39 type  1   force =    -0.00004130   -0.00007134   -0.00010246
     atom   40 type  1   force =    -0.00007303   -0.00010407    0.00002098
     atom   41 type  1   force =    -0.00002090   -0.00004565    0.00006502
     atom   42 type  1   force =    -0.00000701   -0.00002446   -0.00004477
     atom   43 type  1   force =    -0.00003012   -0.00000239   -0.00012232
     atom   44 type  1   force =    -0.00007185    0.00001871   -0.00006812
     atom   45 type  1   force =    -0.00001836    0.00004925    0.00001255
     atom   46 type  1   force =    -0.00006850    0.00001619    0.00004768
     atom   47 type  1   force =    -0.00002457   -0.00003983   -0.00004158
     atom   48 type  1   force =    -0.00002615   -0.00001415    0.00000052
     atom   49 type  1   force =    -0.00002393   -0.00009902   -0.00000917
     atom   50 type  1   force =    -0.00002578   -0.00002323   -0.00003271
     atom   51 type  1   force =     0.00000201   -0.00005173   -0.00011899
     atom   52 type  1   force =     0.00001001   -0.00009863   -0.00006433
     atom   53 type  1   force =     0.00005437   -0.00004411    0.00001158
     atom   54 type  1   force =     0.00001344   -0.00008835    0.00003434
     atom   55 type  1   force =     0.00004428    0.00003349   -0.00005707
     atom   56 type  2   force =    -0.00000136   -0.00000219   -0.00000179

     Total force =     0.004038     Total SCF correction =     0.000579
     SCF correction compared to forces is large: reduce conv_thr to get better values
     Energy error            =      3.6E-05 Ry
     Gradient error          =      7.9E-04 Ry/Bohr

     bfgs converged in  43 scf cycles and  42 bfgs steps
     (criteria: energy <  1.0E-04 Ry, force <  1.0E-03 Ry/Bohr)

     End of BFGS Geometry Optimization

     Final energy             =  -11591.5160707508 Ry

     File ./out/calc.bfgs deleted, as requested
Begin final coordinates

ATOMIC_POSITIONS (angstrom)
Pt              -3.9314981241       -1.9295665512       -2.0728768597
Pt              -1.9295665512       -3.9314981241       -2.0728768597
Pt              -1.8493484719       -1.8493484719       -4.0406561792
Pt              -3.7694950019       -3.7694950019       -0.0121153555
Pt              -3.9140294341       -1.9268480362        1.9557986978
Pt              -1.9268480362       -3.9140294341        1.9557986978
Pt              -1.9303716003       -1.9303716003       -0.0368747044
Pt              -1.8984692412       -1.8984692412        3.9681746071
Pt              -3.7839181158        0.0288858369       -3.8849620433
Pt              -3.9515906790        1.8717787426       -1.9220959174
Pt              -1.9347042619       -0.0104616573       -1.9620002225
Pt              -1.8967591132        1.9331296448       -3.9326911457
Pt              -4.1226512996       -0.0901446266       -0.0369790150
Pt              -3.9481197535        1.8454384625        1.8830486751
Pt              -1.9341719544       -0.0169153082        1.9219276679
Pt              -1.9406074278        1.9052393903       -0.0196876492
Pt              -3.7802492125        0.0078742296        3.8571694296
Pt              -1.9098221599        1.9155182075        3.9174205731
Pt              -1.9371297215        3.9259946223       -1.9053980496
Pt              -3.8480616980        3.7543461339       -0.0073129922
Pt              -1.9325425493        3.9132428337        1.8878211652
Pt               0.0288858369       -3.7839181158       -3.8849620433
Pt              -0.0104616573       -1.9347042619       -1.9620002225
Pt               1.8717787426       -3.9515906790       -1.9220959174
Pt               1.9331296448       -1.8967591132       -3.9326911457
Pt              -0.0901446266       -4.1226512996       -0.0369790150
Pt              -0.0169153082       -1.9341719544        1.9219276679
Pt               1.8454384625       -3.9481197535        1.8830486751
Pt               1.9052393903       -1.9406074278       -0.0196876492
Pt               0.0078742296       -3.7802492125        3.8571694296
Pt               1.9155182075       -1.9098221599        3.9174205731
Pt               0.0513820021        0.0513820021       -4.1345708041
Pt               0.0064995169        1.9369768790       -1.9244885420
Pt               1.9369768790        0.0064995169       -1.9244885420
Pt               1.9541271714        1.9541271714       -3.9102920890
Pt              -0.0056220991       -0.0056220991       -0.0201497049
Pt              -0.0096445181        1.9156680669        1.9087251157
Pt               1.9156680669       -0.0096445181        1.9087251157
Pt               1.9352233483        1.9352233483       -0.0053624265
Pt               0.0087216886        0.0087216886        4.1255478414
Pt               1.9122330716        1.9122330716        3.9210330957
Pt               0.0133415145        3.8348689202       -3.7650165516
Pt               1.9373659557        3.9602544515       -1.8915196225
Pt              -0.0053660543        4.1292291311       -0.0076862016
Pt               1.9092724205        3.9336948742        1.9051118151
Pt              -0.0056569161        3.8096197709        3.7792882537
Pt               3.9259946223       -1.9371297215       -1.9053980496
Pt               3.7543461339       -3.8480616980       -0.0073129922
Pt               3.9132428337       -1.9325425493        1.8878211652
Pt               3.8348689202        0.0133415145       -3.7650165516
Pt               3.9602544515        1.9373659557       -1.8915196225
Pt               4.1292291311       -0.0053660543       -0.0076862016
Pt               3.9336948742        1.9092724205        1.9051118151
Pt               3.8096197709       -0.0056569161        3.7792882537
Pt               3.8216813457        3.8216813457        0.0189417865
H               -3.8657006561       -3.8657006561       -1.8144666285
End final coordinates



     Writing all to output data dir ./out/calc.save/ :
     XML data file, charge density, pseudopotentials, collected wavefunctions
 
     init_run     :     15.60s CPU     17.72s WALL (       1 calls)
     electrons    : 285935.95s CPU 291441.38s WALL (      37 calls)
     update_pot   :     83.84s CPU     93.73s WALL (      36 calls)
     forces       :    257.86s CPU    276.73s WALL (      37 calls)

     Called by init_run:
     wfcinit      :      8.81s CPU      9.43s WALL (       1 calls)
     wfcinit:atom :      0.04s CPU      0.08s WALL (       2 calls)
     wfcinit:wfcr :      8.40s CPU      8.92s WALL (       2 calls)
     potinit      :      3.46s CPU      4.74s WALL (       1 calls)
     hinit0       :      0.97s CPU      1.06s WALL (       1 calls)

     Called by electrons:
     c_bands      : 274871.74s CPU 279383.86s WALL (    1412 calls)
     sum_band     :   6693.08s CPU   7098.11s WALL (    1412 calls)
     v_of_rho     :   3124.82s CPU   3497.02s WALL (    1420 calls)
     v_h          :     43.90s CPU     47.93s WALL (    1420 calls)
     v_xc         :   3161.81s CPU   3540.17s WALL (    1457 calls)
     newd         :   1123.83s CPU   1278.26s WALL (    1420 calls)
     mix_rho      :    128.82s CPU    138.55s WALL (    1412 calls)

     Called by c_bands:
     init_us_2    :    296.50s CPU    299.89s WALL (    5724 calls)
     rcgdiagg     : 265553.70s CPU 269533.26s WALL (    2899 calls)
     wfcrot       :   9066.83s CPU   9561.42s WALL (    2769 calls)

     Called by sum_band:
     sum_band:wei :      2.37s CPU      2.40s WALL (    1412 calls)
     sum_band:loo :   4995.03s CPU   5235.17s WALL (    1412 calls)
     sum_band:buf :     56.27s CPU     56.95s WALL (    2824 calls)
     sum_band:ini :    147.39s CPU    148.86s WALL (    2824 calls)
     sum_band:cal :    826.06s CPU    830.69s WALL (    2824 calls)
     sum_band:bec :      6.24s CPU      6.29s WALL (    2824 calls)
     addusdens    :   1615.73s CPU   1774.11s WALL (    1412 calls)
                                        0.00s GPU  (    1412 calls)
     addusd:skk   :     43.56s CPU     77.75s WALL (    2824 calls)
                                        0.00s GPU  (    2824 calls)

     Called by *cgdiagg:
     h_psi        : 120565.83s CPU 123805.82s WALL ( 3551648 calls)
     s_psi        :  83644.23s CPU  84309.81s WALL ( 7100527 calls)

     Called by h_psi:
     h_psi:calbec :  46111.22s CPU  46445.13s WALL ( 3551648 calls)
     vloc_psi     :  31844.98s CPU  34434.07s WALL ( 3551648 calls)
     add_vuspsi   :  42455.93s CPU  42780.77s WALL ( 3551648 calls)
     hs_1psi      : 155120.17s CPU 158240.55s WALL ( 3548879 calls)
     s_1psi       :  85491.57s CPU  86145.47s WALL ( 3548879 calls)

     General routines
     calbec       :  90886.06s CPU  91564.03s WALL ( 7103647 calls)
     fft          :   1670.84s CPU   1937.15s WALL (   98962 calls)
     ffts         :     21.33s CPU     24.78s WALL (    4252 calls)
     fftw         :  19692.52s CPU  22272.45s WALL ( 9313952 calls)
     interpolate  :     73.00s CPU     82.82s WALL (    2840 calls)
 
     Parallel routines
 
     PWSCF        :   3d 7h32m CPU   3d 9h 5m WALL

 
   This run was terminated on:  11:36:53  21Jan2025            

=------------------------------------------------------------------------------=
   JOB DONE.
=------------------------------------------------------------------------------=
