
     Program PWSCF v.7.3.1 starts on 24Jul2025 at 20:21: 9 

     This program is part of the open-source Quantum ESPRESSO suite
     for quantum simulation of materials; please cite
         "P. Giannozzi et al., J. Phys.:Condens. Matter 21 395502 (2009);
         "P. Giannozzi et al., J. Phys.:Condens. Matter 29 465901 (2017);
         "P. Giannozzi et al., J. Chem. Phys. 152 154105 (2020);
          URL http://www.quantum-espresso.org", 
     in publications or presentations arising from this work. More details at
     http://www.quantum-espresso.org/quote

     Parallel version (MPI), running on    36 processors

     MPI processes distributed on     1 nodes
     102995 MiB available memory on the printing compute node when the environment starts
 
     Reading input from espresso.pwi
Warning: card &CELL ignored
Warning: card  CELL_DOFREE = 'IBRAV', ignored
Warning: card / ignored

     Current dimensions of program PWSCF are:
     Max number of different atomic species (ntypx) = 10
     Max number of k-points (npk) =  40000
     Max angular momentum in pseudopotentials (lmaxx) =  4
     Message from routine iosys:
     restart disabled: needed files not found

     IMPORTANT: XC functional enforced from input :
     Exchange-correlation= RVV10
                           (   1   4  13   4  26   0   0)
     Any further DFT definition will be discarded
     Please, verify this is what you really want


     Atomic positions and unit cell read from directory:
     ./out/calc.save/
     Message from routine qexsd_readschema :
     xml data file ./out/calc.save/data-file-schema.xml not found
     Nothing found: using input atomic positions and unit cell


     gamma-point specific algorithms are used
 
     R & G space division:  proc/nbgrp/npool/nimage =      36
     Subspace diagonalization in iterative solution of the eigenvalue problem:
     one sub-group per band group will be used
     scalapack distributed-memory algorithm (size of sub-group:  5*  5 procs)

 
     Parallelization info
     --------------------
     sticks:   dense  smooth     PW     G-vecs:    dense   smooth      PW
     Min        1514     756    187               266321    94136   11763
     Max        1516     758    190               266336    94150   11778
     Sum       54553   27281   6817              9587919  3389267  423701
 
     Using Slab Decomposition
 

     Title: 
     Pt55 DRC DFT-PBE                                                           


     bravais-lattice index     =            0
     lattice parameter (alat)  =      37.7945  a.u.
     unit-cell volume          =   53986.6760 (a.u.)^3
     number of atoms/cell      =           56
     number of atomic types    =            2
     number of electrons       =       881.00
     number of Kohn-Sham states=          529
     kinetic-energy cutoff     =      60.0000  Ry
     charge density cutoff     =     480.0000  Ry
     scf convergence threshold =      1.0E-06
     mixing beta               =       0.2000
     number of iterations used =            8  plain     mixing
     energy convergence thresh.=      1.0E-04
     force convergence thresh. =      1.0E-03
     Exchange-correlation= RVV10
                           (   1   4  13   4  26   0   0)
     nstep                     =        10000


     celldm(1)=  37.794522  celldm(2)=   0.000000  celldm(3)=   0.000000
     celldm(4)=   0.000000  celldm(5)=   0.000000  celldm(6)=   0.000000

     crystal axes: (cart. coord. in units of alat)
               a(1) = (   1.000000   0.000000   0.000000 )  
               a(2) = (   0.000000   1.000000   0.000000 )  
               a(3) = (   0.000000   0.000000   1.000000 )  

     reciprocal axes: (cart. coord. in units 2 pi/alat)
               b(1) = (  1.000000  0.000000  0.000000 )  
               b(2) = (  0.000000  1.000000  0.000000 )  
               b(3) = (  0.000000  0.000000  1.000000 )  


     PseudoPot. # 1 for Pt read from file:
     /home/james/work/espresso/SSSP_1.3.0_PBE_efficiency/pt_pbe_v1.4.uspp.F.UPF
     MD5 check sum: f09d6de1a584b5a045c4fc126da2d0c4
     Pseudo is Ultrasoft + core correction, Zval = 16.0
     Generated by new atomic code, or converted to UPF format
     Using radial grid of  985 points,  6 beta functions with: 
                l(1) =   0
                l(2) =   0
                l(3) =   1
                l(4) =   1
                l(5) =   2
                l(6) =   2
     Q(r) pseudized with  8 coefficients,  rinner =    1.300   1.300   1.300
                                                       1.300   1.300

     PseudoPot. # 2 for H  read from file:
     /home/james/work/espresso/SSSP_1.3.0_PBE_efficiency/H.pbe-rrkjus_psl.1.0.0.UPF
     MD5 check sum: f52b6d4d1c606e5624b1dc7b2218f220
     Pseudo is Ultrasoft, Zval =  1.0
     Generated using "atomic" code by A. Dal Corso  v.5.1
     Using radial grid of  929 points,  2 beta functions with: 
                l(1) =   0
                l(2) =   0
     Q(r) pseudized with 0 coefficients 


     atomic species   valence    mass     pseudopotential
     Pt               16.00   195.08400     Pt( 1.00)
     H                 1.00     1.00800     H ( 1.00)

     Starting magnetic structure 
     atomic species   magnetization
     Pt              0.010
     H               0.000

     No symmetry found


                                    s                        frac. trans.

      isym =  1     identity                                     

 cryst.   s( 1) = (     1          0          0      )
                  (     0          1          0      )
                  (     0          0          1      )

 cart.    s( 1) = (  1.0000000  0.0000000  0.0000000 )
                  (  0.0000000  1.0000000  0.0000000 )
                  (  0.0000000  0.0000000  1.0000000 )


   Cartesian axes

     site n.     atom                  positions (alat units)
         1        Pt     tau(   1) = (  -0.1184692  -0.1289811  -0.2146595  )
         2        Pt     tau(   2) = (   0.0879732  -0.1905563  -0.0473935  )
         3        Pt     tau(   3) = (  -0.0407954  -0.2088642  -0.0136076  )
         4        Pt     tau(   4) = (  -0.0534911  -0.0140564  -0.1170277  )
         5        Pt     tau(   5) = (  -0.1338863   0.0930485  -0.1450428  )
         6        Pt     tau(   6) = (  -0.0216487   0.0742489  -0.2224670  )
         7        Pt     tau(   7) = (  -0.1228422  -0.0003186  -0.2473079  )
         8        Pt     tau(   8) = (  -0.2193709   0.0091502   0.0852671  )
         9        Pt     tau(   9) = (   0.0332487  -0.0443171   0.0797488  )
        10        Pt     tau(  10) = (   0.0490643   0.0649223  -0.0801249  )
        11        Pt     tau(  11) = (   0.1286964   0.0142868   0.0087880  )
        12        Pt     tau(  12) = (   0.0516947  -0.1831859   0.0823583  )
        13        Pt     tau(  13) = (  -0.1824139  -0.0401985  -0.1364734  )
        14        Pt     tau(  14) = (  -0.1203394  -0.1322049   0.2271575  )
        15        Pt     tau(  15) = (  -0.1987900  -0.1171753   0.1194564  )
        16        Pt     tau(  16) = (   0.2439832   0.0269829  -0.0478417  )
        17        Pt     tau(  17) = (   0.1291423   0.1929666   0.0441357  )
        18        Pt     tau(  18) = (   0.2135598  -0.0299727  -0.1637702  )
        19        Pt     tau(  19) = (  -0.0893648   0.0523185  -0.0126911  )
        20        Pt     tau(  20) = (  -0.2080250   0.1375869   0.0577217  )
        21        Pt     tau(  21) = (  -0.1409462  -0.1648513  -0.0948211  )
        22        Pt     tau(  22) = (   0.0306188   0.2158309   0.1283915  )
        23        Pt     tau(  23) = (  -0.0038981  -0.0644102  -0.2279053  )
        24        Pt     tau(  24) = (   0.2243978  -0.0502054   0.0665406  )
        25        Pt     tau(  25) = (   0.1820945   0.0964271  -0.1408716  )
        26        Pt     tau(  26) = (   0.2264479   0.1612750  -0.0350756  )
        27        Pt     tau(  27) = (  -0.0229513   0.1709344  -0.1259021  )
        28        Pt     tau(  28) = (   0.0207124   0.0847292   0.0494645  )
        29        Pt     tau(  29) = (  -0.0882590  -0.0022267   0.1018400  )
        30        Pt     tau(  30) = (   0.1907775   0.0152478   0.1772775  )
        31        Pt     tau(  31) = (   0.1789948  -0.1737259   0.0478570  )
        32        Pt     tau(  32) = (  -0.2068087  -0.0814042  -0.0116031  )
        33        Pt     tau(  33) = (  -0.0671348  -0.0085571   0.2287301  )
        34        Pt     tau(  34) = (  -0.1498055   0.0904163   0.1729490  )
        35        Pt     tau(  35) = (  -0.0719561  -0.0785236  -0.0018603  )
        36        Pt     tau(  36) = (   0.1074455  -0.1080978  -0.1653069  )
        37        Pt     tau(  37) = (  -0.2143159   0.0476112  -0.0425252  )
        38        Pt     tau(  38) = (   0.0970606   0.0186090  -0.2042751  )
        39        Pt     tau(  39) = (   0.2152744   0.0880652   0.0720890  )
        40        Pt     tau(  40) = (  -0.1702640  -0.2033339   0.0251930  )
        41        Pt     tau(  41) = (   0.1333264  -0.1021657   0.1506856  )
        42        Pt     tau(  42) = (  -0.0758684  -0.1667120   0.1080652  )
        43        Pt     tau(  43) = (   0.0079707  -0.1220948   0.1959394  )
        44        Pt     tau(  44) = (   0.1035756   0.1872857  -0.0840180  )
        45        Pt     tau(  45) = (   0.0017203   0.2074397  -0.0000028  )
        46        Pt     tau(  46) = (  -0.1214752   0.1735622  -0.0383396  )
        47        Pt     tau(  47) = (   0.0626453  -0.0003444   0.2036670  )
        48        Pt     tau(  48) = (  -0.0911473   0.1789724   0.0937393  )
        49        Pt     tau(  49) = (   0.0820102   0.1511787  -0.2092932  )
        50        Pt     tau(  50) = (  -0.0177604   0.1051450   0.1826634  )
        51        Pt     tau(  51) = (  -0.0105208  -0.1612931  -0.1336594  )
        52        Pt     tau(  52) = (   0.1953231  -0.1018990  -0.0580435  )
        53        Pt     tau(  53) = (   0.0533890  -0.0672335  -0.0550032  )
        54        Pt     tau(  54) = (   0.1107939   0.1151121   0.1533706  )
        55        Pt     tau(  55) = (  -0.1993928  -0.0264440   0.2138168  )
        56        H      tau(  56) = (  -0.1513815  -0.1027307  -0.2878236  )

   Crystallographic axes

     site n.     atom                  positions (cryst. coord.)
         1        Pt     tau(   1) = ( -0.1184692 -0.1289811 -0.2146595  )
         2        Pt     tau(   2) = (  0.0879732 -0.1905563 -0.0473935  )
         3        Pt     tau(   3) = ( -0.0407954 -0.2088642 -0.0136076  )
         4        Pt     tau(   4) = ( -0.0534911 -0.0140564 -0.1170277  )
         5        Pt     tau(   5) = ( -0.1338863  0.0930485 -0.1450428  )
         6        Pt     tau(   6) = ( -0.0216487  0.0742489 -0.2224670  )
         7        Pt     tau(   7) = ( -0.1228422 -0.0003186 -0.2473079  )
         8        Pt     tau(   8) = ( -0.2193709  0.0091502  0.0852671  )
         9        Pt     tau(   9) = (  0.0332487 -0.0443171  0.0797488  )
        10        Pt     tau(  10) = (  0.0490643  0.0649223 -0.0801249  )
        11        Pt     tau(  11) = (  0.1286964  0.0142868  0.0087880  )
        12        Pt     tau(  12) = (  0.0516947 -0.1831859  0.0823583  )
        13        Pt     tau(  13) = ( -0.1824139 -0.0401985 -0.1364734  )
        14        Pt     tau(  14) = ( -0.1203394 -0.1322049  0.2271575  )
        15        Pt     tau(  15) = ( -0.1987900 -0.1171753  0.1194564  )
        16        Pt     tau(  16) = (  0.2439832  0.0269829 -0.0478417  )
        17        Pt     tau(  17) = (  0.1291423  0.1929666  0.0441357  )
        18        Pt     tau(  18) = (  0.2135598 -0.0299727 -0.1637702  )
        19        Pt     tau(  19) = ( -0.0893648  0.0523185 -0.0126911  )
        20        Pt     tau(  20) = ( -0.2080250  0.1375869  0.0577217  )
        21        Pt     tau(  21) = ( -0.1409462 -0.1648513 -0.0948211  )
        22        Pt     tau(  22) = (  0.0306188  0.2158309  0.1283915  )
        23        Pt     tau(  23) = ( -0.0038981 -0.0644102 -0.2279053  )
        24        Pt     tau(  24) = (  0.2243978 -0.0502054  0.0665406  )
        25        Pt     tau(  25) = (  0.1820945  0.0964271 -0.1408716  )
        26        Pt     tau(  26) = (  0.2264479  0.1612750 -0.0350756  )
        27        Pt     tau(  27) = ( -0.0229513  0.1709344 -0.1259021  )
        28        Pt     tau(  28) = (  0.0207124  0.0847292  0.0494645  )
        29        Pt     tau(  29) = ( -0.0882590 -0.0022267  0.1018400  )
        30        Pt     tau(  30) = (  0.1907775  0.0152478  0.1772775  )
        31        Pt     tau(  31) = (  0.1789948 -0.1737259  0.0478570  )
        32        Pt     tau(  32) = ( -0.2068087 -0.0814042 -0.0116031  )
        33        Pt     tau(  33) = ( -0.0671348 -0.0085571  0.2287301  )
        34        Pt     tau(  34) = ( -0.1498055  0.0904163  0.1729490  )
        35        Pt     tau(  35) = ( -0.0719561 -0.0785236 -0.0018603  )
        36        Pt     tau(  36) = (  0.1074455 -0.1080978 -0.1653069  )
        37        Pt     tau(  37) = ( -0.2143159  0.0476112 -0.0425252  )
        38        Pt     tau(  38) = (  0.0970606  0.0186090 -0.2042751  )
        39        Pt     tau(  39) = (  0.2152744  0.0880652  0.0720890  )
        40        Pt     tau(  40) = ( -0.1702640 -0.2033339  0.0251930  )
        41        Pt     tau(  41) = (  0.1333264 -0.1021657  0.1506856  )
        42        Pt     tau(  42) = ( -0.0758684 -0.1667120  0.1080652  )
        43        Pt     tau(  43) = (  0.0079707 -0.1220948  0.1959394  )
        44        Pt     tau(  44) = (  0.1035756  0.1872857 -0.0840180  )
        45        Pt     tau(  45) = (  0.0017203  0.2074397 -0.0000028  )
        46        Pt     tau(  46) = ( -0.1214752  0.1735622 -0.0383396  )
        47        Pt     tau(  47) = (  0.0626453 -0.0003444  0.2036670  )
        48        Pt     tau(  48) = ( -0.0911473  0.1789724  0.0937393  )
        49        Pt     tau(  49) = (  0.0820102  0.1511787 -0.2092932  )
        50        Pt     tau(  50) = ( -0.0177604  0.1051450  0.1826634  )
        51        Pt     tau(  51) = ( -0.0105208 -0.1612931 -0.1336594  )
        52        Pt     tau(  52) = (  0.1953231 -0.1018990 -0.0580435  )
        53        Pt     tau(  53) = (  0.0533890 -0.0672335 -0.0550032  )
        54        Pt     tau(  54) = (  0.1107939  0.1151121  0.1533706  )
        55        Pt     tau(  55) = ( -0.1993928 -0.0264440  0.2138168  )
        56        H      tau(  56) = ( -0.1513815 -0.1027307 -0.2878236  )

     number of k points=     1  Gaussian smearing, width (Ry)=  0.0100
                       cart. coord. in units 2pi/alat
        k(    1) = (   0.0000000   0.0000000   0.0000000), wk =   1.0000000

                       cryst. coord.
        k(    1) = (   0.0000000   0.0000000   0.0000000), wk =   1.0000000

     Dense  grid:  4793960 G-vectors     FFT dimensions: ( 270, 270, 270)

     Smooth grid:  1694634 G-vectors     FFT dimensions: ( 192, 192, 192)

     Dynamical RAM for                 wfc:      47.50 MB

     Dynamical RAM for     wfc (w. buffer):     142.49 MB

     Dynamical RAM for           str. fact:       4.06 MB

     Dynamical RAM for           local pot:       0.00 MB

     Dynamical RAM for          nlocal pot:      89.06 MB

     Dynamical RAM for                qrad:       3.52 MB

     Dynamical RAM for          rho,v,vnew:      38.89 MB

     Dynamical RAM for               rhoin:      12.96 MB

     Dynamical RAM for            rho*nmix:      65.02 MB

     Dynamical RAM for           G-vectors:       7.98 MB

     Dynamical RAM for          h,s,v(r/c):       0.25 MB

     Dynamical RAM for          <psi|beta>:       4.00 MB

     Dynamical RAM for      wfcinit/wfcrot:     101.40 MB

     Dynamical RAM for           addusdens:     491.72 MB

     Dynamical RAM for          addusforce:     711.60 MB

     Estimated static dynamical RAM per process >     331.75 MB

     Estimated max dynamical RAM per process >       1.08 GB

     Estimated total dynamical RAM >      38.97 GB
     Generating pointlists ...
     new r_m :   0.0348 (alat units)  1.3160 (a.u.) for type    1
     new r_m :   0.0348 (alat units)  1.3160 (a.u.) for type    2
     Cannot read rho : file not found

     Initial potential from superposition of free atoms

     starting charge     853.4994, renormalised to     881.0000

     negative rho (up, down):  5.280E+00 5.175E+00


---------------------------------------------------------------------------------
Carrying out rVV10 run using the following parameters:
Nqs =      20    Nr_points =    1024   r_max =   100.000
b_value =  6.30000    beta =  0.00901
     q_mesh =  0.00010000  0.00030000  0.00058939  0.00100810
               0.00161396  0.00249058  0.00375900  0.00559430
               0.00824984  0.01209221  0.01765183  0.02569619
               0.03733578  0.05417739  0.07854596  0.11380545
               0.16482331  0.23864234  0.34545298  0.50000000

Gradients computed in Reciprocal space

---------------------------------------------------------------------------------




     ----------------------------------------------------------------

     Non-local correlation energy =              9.712636070616352

     ----------------------------------------------------------------

     Message from routine qexsd_readschema :
     xml data file ./out/calc.save/data-file-schema.xml not found
     Cannot read wfcs: file not found
     Starting wfcs are  661 randomized atomic wfcs

     total cpu time spent up to now is       23.2 secs

     Self-consistent Calculation

     iteration #  1     ecut=    60.00 Ry     beta= 0.20
     CG style diagonalization

---- Real-time Memory Report at c_bands before calling an iterative solver
             0 MiB given to the printing process from OS
             0 MiB allocation reported by mallinfo(arena+hblkhd)
         88370 MiB available memory on the node where the printing process lives
------------------
     c_bands:  3 eigenvalues not converged
     c_bands:  5 eigenvalues not converged
     ethr =  1.00E-05,  avg # of iterations = 25.6

     negative rho (up, down):  5.082E+00 4.993E+00


     ----------------------------------------------------------------

     Non-local correlation energy =              9.335907505236527

     ----------------------------------------------------------------


     total cpu time spent up to now is     2628.2 secs

     total energy              =  -11536.82576600 Ry
     estimated scf accuracy    <     243.16662348 Ry

     total magnetization       =     4.11 Bohr mag/cell
     absolute magnetization    =     4.39 Bohr mag/cell

     iteration #  2     ecut=    60.00 Ry     beta= 0.20
     CG style diagonalization

---- Real-time Memory Report at c_bands before calling an iterative solver
             0 MiB given to the printing process from OS
             0 MiB allocation reported by mallinfo(arena+hblkhd)
         86389 MiB available memory on the node where the printing process lives
------------------
     ethr =  1.00E-02,  avg # of iterations =  4.8

     negative rho (up, down):  5.047E+00 4.962E+00


     ----------------------------------------------------------------

     Non-local correlation energy =              9.291014633715182

     ----------------------------------------------------------------


     total cpu time spent up to now is     3073.8 secs

     total energy              =  -11566.04228342 Ry
     estimated scf accuracy    <     330.45564226 Ry

     total magnetization       =     6.59 Bohr mag/cell
     absolute magnetization    =     7.64 Bohr mag/cell

     iteration #  3     ecut=    60.00 Ry     beta= 0.20
     CG style diagonalization

---- Real-time Memory Report at c_bands before calling an iterative solver
             0 MiB given to the printing process from OS
             0 MiB allocation reported by mallinfo(arena+hblkhd)
         86231 MiB available memory on the node where the printing process lives
------------------
     ethr =  1.00E-02,  avg # of iterations =  3.7

     negative rho (up, down):  5.004E+00 4.926E+00


     ----------------------------------------------------------------

     Non-local correlation energy =              9.258157470271826

     ----------------------------------------------------------------


     total cpu time spent up to now is     3398.8 secs

     total energy              =  -11586.58504988 Ry
     estimated scf accuracy    <      35.91615943 Ry

     total magnetization       =     4.84 Bohr mag/cell
     absolute magnetization    =     6.87 Bohr mag/cell

     iteration #  4     ecut=    60.00 Ry     beta= 0.20
     CG style diagonalization

---- Real-time Memory Report at c_bands before calling an iterative solver
             0 MiB given to the printing process from OS
             0 MiB allocation reported by mallinfo(arena+hblkhd)
         86078 MiB available memory on the node where the printing process lives
------------------
     ethr =  4.08E-03,  avg # of iterations =  3.3

     negative rho (up, down):  4.989E+00 4.914E+00


     ----------------------------------------------------------------

     Non-local correlation energy =              9.247793590361574

     ----------------------------------------------------------------


     total cpu time spent up to now is     3679.8 secs

     total energy              =  -11587.40605604 Ry
     estimated scf accuracy    <     134.94709499 Ry

     total magnetization       =     2.78 Bohr mag/cell
     absolute magnetization    =     4.31 Bohr mag/cell

     iteration #  5     ecut=    60.00 Ry     beta= 0.20
     CG style diagonalization

---- Real-time Memory Report at c_bands before calling an iterative solver
             0 MiB given to the printing process from OS
             0 MiB allocation reported by mallinfo(arena+hblkhd)
         85928 MiB available memory on the node where the printing process lives
------------------
     ethr =  4.08E-03,  avg # of iterations =  3.0

     negative rho (up, down):  4.977E+00 4.905E+00


     ----------------------------------------------------------------

     Non-local correlation energy =              9.241376337533527

     ----------------------------------------------------------------


     total cpu time spent up to now is     3923.9 secs

     total energy              =  -11590.29596306 Ry
     estimated scf accuracy    <      63.94761324 Ry

     total magnetization       =     2.43 Bohr mag/cell
     absolute magnetization    =     2.86 Bohr mag/cell

     iteration #  6     ecut=    60.00 Ry     beta= 0.20
     CG style diagonalization

---- Real-time Memory Report at c_bands before calling an iterative solver
             0 MiB given to the printing process from OS
             0 MiB allocation reported by mallinfo(arena+hblkhd)
         85791 MiB available memory on the node where the printing process lives
------------------
     ethr =  4.08E-03,  avg # of iterations =  3.0

     negative rho (up, down):  4.968E+00 4.898E+00


     ----------------------------------------------------------------

     Non-local correlation energy =              9.237378066715543

     ----------------------------------------------------------------


     total cpu time spent up to now is     4167.4 secs

     total energy              =  -11591.08501642 Ry
     estimated scf accuracy    <      33.72462392 Ry

     total magnetization       =     2.95 Bohr mag/cell
     absolute magnetization    =     3.21 Bohr mag/cell

     iteration #  7     ecut=    60.00 Ry     beta= 0.20
     CG style diagonalization

---- Real-time Memory Report at c_bands before calling an iterative solver
             0 MiB given to the printing process from OS
             0 MiB allocation reported by mallinfo(arena+hblkhd)
         85623 MiB available memory on the node where the printing process lives
------------------
     ethr =  3.83E-03,  avg # of iterations =  3.0

     negative rho (up, down):  4.948E+00 4.884E+00


     ----------------------------------------------------------------

     Non-local correlation energy =              9.230750088252673

     ----------------------------------------------------------------


     total cpu time spent up to now is     4411.3 secs

     total energy              =  -11591.54884337 Ry
     estimated scf accuracy    <      17.82457508 Ry

     total magnetization       =     1.95 Bohr mag/cell
     absolute magnetization    =     2.28 Bohr mag/cell

     iteration #  8     ecut=    60.00 Ry     beta= 0.20
     CG style diagonalization

---- Real-time Memory Report at c_bands before calling an iterative solver
             0 MiB given to the printing process from OS
             0 MiB allocation reported by mallinfo(arena+hblkhd)
         85507 MiB available memory on the node where the printing process lives
------------------
     ethr =  2.02E-03,  avg # of iterations =  3.0

     negative rho (up, down):  4.928E+00 4.870E+00


     ----------------------------------------------------------------

     Non-local correlation energy =              9.224758281050985

     ----------------------------------------------------------------


     total cpu time spent up to now is     4655.1 secs

     total energy              =  -11591.55584396 Ry
     estimated scf accuracy    <      13.92817183 Ry

     total magnetization       =     2.17 Bohr mag/cell
     absolute magnetization    =     2.46 Bohr mag/cell

     iteration #  9     ecut=    60.00 Ry     beta= 0.20
     CG style diagonalization

---- Real-time Memory Report at c_bands before calling an iterative solver
             0 MiB given to the printing process from OS
             0 MiB allocation reported by mallinfo(arena+hblkhd)
         85331 MiB available memory on the node where the printing process lives
------------------
     ethr =  1.58E-03,  avg # of iterations =  3.0

     negative rho (up, down):  4.913E+00 4.860E+00


     ----------------------------------------------------------------

     Non-local correlation energy =              9.221675317552116

     ----------------------------------------------------------------


     total cpu time spent up to now is     4898.8 secs

     total energy              =  -11591.80935123 Ry
     estimated scf accuracy    <       6.90136977 Ry

     total magnetization       =     2.11 Bohr mag/cell
     absolute magnetization    =     2.38 Bohr mag/cell

     iteration # 10     ecut=    60.00 Ry     beta= 0.20
     CG style diagonalization

---- Real-time Memory Report at c_bands before calling an iterative solver
             0 MiB given to the printing process from OS
             0 MiB allocation reported by mallinfo(arena+hblkhd)
         85204 MiB available memory on the node where the printing process lives
------------------
     ethr =  7.83E-04,  avg # of iterations =  3.1

     negative rho (up, down):  4.903E+00 4.853E+00


     ----------------------------------------------------------------

     Non-local correlation energy =              9.219713640272769

     ----------------------------------------------------------------


     total cpu time spent up to now is     5149.1 secs

     total energy              =  -11591.85634666 Ry
     estimated scf accuracy    <       7.23757627 Ry

     total magnetization       =     1.97 Bohr mag/cell
     absolute magnetization    =     2.24 Bohr mag/cell

     iteration # 11     ecut=    60.00 Ry     beta= 0.20
     CG style diagonalization

---- Real-time Memory Report at c_bands before calling an iterative solver
             0 MiB given to the printing process from OS
             0 MiB allocation reported by mallinfo(arena+hblkhd)
         85206 MiB available memory on the node where the printing process lives
------------------
     ethr =  7.83E-04,  avg # of iterations =  3.0

     negative rho (up, down):  4.890E+00 4.845E+00


     ----------------------------------------------------------------

     Non-local correlation energy =              9.219034288977245

     ----------------------------------------------------------------


     total cpu time spent up to now is     5393.3 secs

     total energy              =  -11591.94817432 Ry
     estimated scf accuracy    <       1.77660576 Ry

     total magnetization       =     1.67 Bohr mag/cell
     absolute magnetization    =     1.95 Bohr mag/cell

     iteration # 12     ecut=    60.00 Ry     beta= 0.20
     CG style diagonalization

---- Real-time Memory Report at c_bands before calling an iterative solver
             0 MiB given to the printing process from OS
             0 MiB allocation reported by mallinfo(arena+hblkhd)
         85197 MiB available memory on the node where the printing process lives
------------------
     ethr =  2.02E-04,  avg # of iterations =  3.2

     negative rho (up, down):  4.877E+00 4.837E+00


     ----------------------------------------------------------------

     Non-local correlation energy =              9.218587428579704

     ----------------------------------------------------------------


     total cpu time spent up to now is     5655.4 secs

     total energy              =  -11591.93766106 Ry
     estimated scf accuracy    <       1.11414819 Ry

     total magnetization       =     1.48 Bohr mag/cell
     absolute magnetization    =     1.76 Bohr mag/cell

     iteration # 13     ecut=    60.00 Ry     beta= 0.20
     CG style diagonalization

---- Real-time Memory Report at c_bands before calling an iterative solver
             0 MiB given to the printing process from OS
             0 MiB allocation reported by mallinfo(arena+hblkhd)
         85189 MiB available memory on the node where the printing process lives
------------------
     ethr =  1.26E-04,  avg # of iterations =  3.0

     negative rho (up, down):  4.863E+00 4.830E+00


     ----------------------------------------------------------------

     Non-local correlation energy =              9.217736524518964

     ----------------------------------------------------------------


     total cpu time spent up to now is     5898.9 secs

     total energy              =  -11591.94141419 Ry
     estimated scf accuracy    <       0.70099343 Ry

     total magnetization       =     1.43 Bohr mag/cell
     absolute magnetization    =     1.70 Bohr mag/cell

     iteration # 14     ecut=    60.00 Ry     beta= 0.20
     CG style diagonalization

---- Real-time Memory Report at c_bands before calling an iterative solver
             0 MiB given to the printing process from OS
             0 MiB allocation reported by mallinfo(arena+hblkhd)
         85173 MiB available memory on the node where the printing process lives
------------------
     c_bands:  1 eigenvalues not converged
     ethr =  7.96E-05,  avg # of iterations =  3.1

     negative rho (up, down):  4.853E+00 4.825E+00


     ----------------------------------------------------------------

     Non-local correlation energy =              9.217567916522773

     ----------------------------------------------------------------


     total cpu time spent up to now is     6149.8 secs

     total energy              =  -11591.95133216 Ry
     estimated scf accuracy    <       0.18603374 Ry

     total magnetization       =     1.32 Bohr mag/cell
     absolute magnetization    =     1.57 Bohr mag/cell

     iteration # 15     ecut=    60.00 Ry     beta= 0.20
     CG style diagonalization

---- Real-time Memory Report at c_bands before calling an iterative solver
             0 MiB given to the printing process from OS
             0 MiB allocation reported by mallinfo(arena+hblkhd)
         85180 MiB available memory on the node where the printing process lives
------------------
     c_bands:  2 eigenvalues not converged
     ethr =  2.11E-05,  avg # of iterations =  3.3

     negative rho (up, down):  4.849E+00 4.824E+00


     ----------------------------------------------------------------

     Non-local correlation energy =              9.217677792977977

     ----------------------------------------------------------------


     total cpu time spent up to now is     6431.9 secs

     total energy              =  -11591.93977708 Ry
     estimated scf accuracy    <       0.33718113 Ry

     total magnetization       =     1.20 Bohr mag/cell
     absolute magnetization    =     1.43 Bohr mag/cell

     iteration # 16     ecut=    60.00 Ry     beta= 0.20
     CG style diagonalization

---- Real-time Memory Report at c_bands before calling an iterative solver
             0 MiB given to the printing process from OS
             0 MiB allocation reported by mallinfo(arena+hblkhd)
         85217 MiB available memory on the node where the printing process lives
------------------
     ethr =  2.11E-05,  avg # of iterations =  3.0

     negative rho (up, down):  4.843E+00 4.820E+00


     ----------------------------------------------------------------

     Non-local correlation energy =              9.216210367247426

     ----------------------------------------------------------------


     total cpu time spent up to now is     6676.2 secs

     total energy              =  -11591.93140024 Ry
     estimated scf accuracy    <       0.86461029 Ry

     total magnetization       =     1.15 Bohr mag/cell
     absolute magnetization    =     1.36 Bohr mag/cell

     iteration # 17     ecut=    60.00 Ry     beta= 0.20
     CG style diagonalization

---- Real-time Memory Report at c_bands before calling an iterative solver
             0 MiB given to the printing process from OS
             0 MiB allocation reported by mallinfo(arena+hblkhd)
         85177 MiB available memory on the node where the printing process lives
------------------
     ethr =  2.11E-05,  avg # of iterations =  3.0

     negative rho (up, down):  4.839E+00 4.819E+00


     ----------------------------------------------------------------

     Non-local correlation energy =              9.215299497917114

     ----------------------------------------------------------------


     total cpu time spent up to now is     6920.2 secs

     total energy              =  -11591.94122025 Ry
     estimated scf accuracy    <       0.45246051 Ry

     total magnetization       =     1.07 Bohr mag/cell
     absolute magnetization    =     1.27 Bohr mag/cell

     iteration # 18     ecut=    60.00 Ry     beta= 0.20
     CG style diagonalization

---- Real-time Memory Report at c_bands before calling an iterative solver
             0 MiB given to the printing process from OS
             0 MiB allocation reported by mallinfo(arena+hblkhd)
         85179 MiB available memory on the node where the printing process lives
------------------
     c_bands:  1 eigenvalues not converged
     ethr =  2.11E-05,  avg # of iterations =  3.0

     negative rho (up, down):  4.835E+00 4.818E+00


     ----------------------------------------------------------------

     Non-local correlation energy =              9.214218354577948

     ----------------------------------------------------------------


     total cpu time spent up to now is     7167.1 secs

     total energy              =  -11591.94803377 Ry
     estimated scf accuracy    <       0.19290741 Ry

     total magnetization       =     0.99 Bohr mag/cell
     absolute magnetization    =     1.18 Bohr mag/cell

     iteration # 19     ecut=    60.00 Ry     beta= 0.20
     CG style diagonalization

---- Real-time Memory Report at c_bands before calling an iterative solver
             0 MiB given to the printing process from OS
             0 MiB allocation reported by mallinfo(arena+hblkhd)
         85182 MiB available memory on the node where the printing process lives
------------------
     ethr =  2.11E-05,  avg # of iterations =  3.1

     negative rho (up, down):  4.835E+00 4.819E+00


     ----------------------------------------------------------------

     Non-local correlation energy =              9.214330453610273

     ----------------------------------------------------------------


     total cpu time spent up to now is     7425.3 secs

     total energy              =  -11591.95114325 Ry
     estimated scf accuracy    <       0.02176987 Ry

     total magnetization       =     0.92 Bohr mag/cell
     absolute magnetization    =     1.10 Bohr mag/cell

     iteration # 20     ecut=    60.00 Ry     beta= 0.20
     CG style diagonalization

---- Real-time Memory Report at c_bands before calling an iterative solver
             0 MiB given to the printing process from OS
             0 MiB allocation reported by mallinfo(arena+hblkhd)
         85165 MiB available memory on the node where the printing process lives
------------------
     ethr =  2.47E-06,  avg # of iterations =  3.3

     negative rho (up, down):  4.833E+00 4.818E+00


     ----------------------------------------------------------------

     Non-local correlation energy =              9.213476316612814

     ----------------------------------------------------------------


     total cpu time spent up to now is     7705.3 secs

     total energy              =  -11591.94894916 Ry
     estimated scf accuracy    <       0.07414825 Ry

     total magnetization       =     0.88 Bohr mag/cell
     absolute magnetization    =     1.04 Bohr mag/cell

     iteration # 21     ecut=    60.00 Ry     beta= 0.20
     CG style diagonalization

---- Real-time Memory Report at c_bands before calling an iterative solver
             0 MiB given to the printing process from OS
             0 MiB allocation reported by mallinfo(arena+hblkhd)
         85171 MiB available memory on the node where the printing process lives
------------------
     ethr =  2.47E-06,  avg # of iterations =  3.2

     negative rho (up, down):  4.832E+00 4.818E+00


     ----------------------------------------------------------------

     Non-local correlation energy =              9.213246848485772

     ----------------------------------------------------------------


     total cpu time spent up to now is     7977.5 secs

     total energy              =  -11591.95053971 Ry
     estimated scf accuracy    <       0.02372398 Ry

     total magnetization       =     0.82 Bohr mag/cell
     absolute magnetization    =     0.98 Bohr mag/cell

     iteration # 22     ecut=    60.00 Ry     beta= 0.20
     CG style diagonalization

---- Real-time Memory Report at c_bands before calling an iterative solver
             0 MiB given to the printing process from OS
             0 MiB allocation reported by mallinfo(arena+hblkhd)
         85129 MiB available memory on the node where the printing process lives
------------------
     ethr =  2.47E-06,  avg # of iterations =  3.0

     negative rho (up, down):  4.831E+00 4.819E+00


     ----------------------------------------------------------------

     Non-local correlation energy =              9.212752953660058

     ----------------------------------------------------------------


     total cpu time spent up to now is     8220.9 secs

     total energy              =  -11591.95040444 Ry
     estimated scf accuracy    <       0.00817703 Ry

     total magnetization       =     0.79 Bohr mag/cell
     absolute magnetization    =     0.94 Bohr mag/cell

     iteration # 23     ecut=    60.00 Ry     beta= 0.20
     CG style diagonalization

---- Real-time Memory Report at c_bands before calling an iterative solver
             0 MiB given to the printing process from OS
             0 MiB allocation reported by mallinfo(arena+hblkhd)
         85169 MiB available memory on the node where the printing process lives
------------------
     c_bands:  1 eigenvalues not converged
     c_bands:  1 eigenvalues not converged
     ethr =  9.28E-07,  avg # of iterations =  3.3

     negative rho (up, down):  4.830E+00 4.819E+00


     ----------------------------------------------------------------

     Non-local correlation energy =              9.212328939702839

     ----------------------------------------------------------------


     total cpu time spent up to now is     8505.0 secs

     total energy              =  -11591.95039524 Ry
     estimated scf accuracy    <       0.00278162 Ry

     total magnetization       =     0.74 Bohr mag/cell
     absolute magnetization    =     0.88 Bohr mag/cell

     iteration # 24     ecut=    60.00 Ry     beta= 0.20
     CG style diagonalization

---- Real-time Memory Report at c_bands before calling an iterative solver
             0 MiB given to the printing process from OS
             0 MiB allocation reported by mallinfo(arena+hblkhd)
         85188 MiB available memory on the node where the printing process lives
------------------
     c_bands:  1 eigenvalues not converged
     c_bands:  1 eigenvalues not converged
     ethr =  3.16E-07,  avg # of iterations =  3.2

     negative rho (up, down):  4.830E+00 4.820E+00


     ----------------------------------------------------------------

     Non-local correlation energy =              9.212003990759525

     ----------------------------------------------------------------


     total cpu time spent up to now is     8771.1 secs

     total energy              =  -11591.95055739 Ry
     estimated scf accuracy    <       0.00205578 Ry

     total magnetization       =     0.68 Bohr mag/cell
     absolute magnetization    =     0.81 Bohr mag/cell

     iteration # 25     ecut=    60.00 Ry     beta= 0.20
     CG style diagonalization

---- Real-time Memory Report at c_bands before calling an iterative solver
             0 MiB given to the printing process from OS
             0 MiB allocation reported by mallinfo(arena+hblkhd)
         85115 MiB available memory on the node where the printing process lives
------------------
     ethr =  2.33E-07,  avg # of iterations =  3.0

     negative rho (up, down):  4.830E+00 4.821E+00


     ----------------------------------------------------------------

     Non-local correlation energy =              9.211667964712817

     ----------------------------------------------------------------


     total cpu time spent up to now is     9015.9 secs

     total energy              =  -11591.95075509 Ry
     estimated scf accuracy    <       0.00085982 Ry

     total magnetization       =     0.64 Bohr mag/cell
     absolute magnetization    =     0.77 Bohr mag/cell

     iteration # 26     ecut=    60.00 Ry     beta= 0.20
     CG style diagonalization

---- Real-time Memory Report at c_bands before calling an iterative solver
             0 MiB given to the printing process from OS
             0 MiB allocation reported by mallinfo(arena+hblkhd)
         85118 MiB available memory on the node where the printing process lives
------------------
     ethr =  9.76E-08,  avg # of iterations =  3.2

     negative rho (up, down):  4.830E+00 4.822E+00


     ----------------------------------------------------------------

     Non-local correlation energy =              9.211542409703572

     ----------------------------------------------------------------


     total cpu time spent up to now is     9280.7 secs

     total energy              =  -11591.95073785 Ry
     estimated scf accuracy    <       0.00245124 Ry

     total magnetization       =     0.59 Bohr mag/cell
     absolute magnetization    =     0.71 Bohr mag/cell

     iteration # 27     ecut=    60.00 Ry     beta= 0.20
     CG style diagonalization

---- Real-time Memory Report at c_bands before calling an iterative solver
             0 MiB given to the printing process from OS
             0 MiB allocation reported by mallinfo(arena+hblkhd)
         85127 MiB available memory on the node where the printing process lives
------------------
     ethr =  9.76E-08,  avg # of iterations =  3.0

     negative rho (up, down):  4.831E+00 4.823E+00


     ----------------------------------------------------------------

     Non-local correlation energy =              9.211401004234409

     ----------------------------------------------------------------


     total cpu time spent up to now is     9523.9 secs

     total energy              =  -11591.95078979 Ry
     estimated scf accuracy    <       0.00216121 Ry

     total magnetization       =     0.57 Bohr mag/cell
     absolute magnetization    =     0.68 Bohr mag/cell

     iteration # 28     ecut=    60.00 Ry     beta= 0.20
     CG style diagonalization

---- Real-time Memory Report at c_bands before calling an iterative solver
             0 MiB given to the printing process from OS
             0 MiB allocation reported by mallinfo(arena+hblkhd)
         85126 MiB available memory on the node where the printing process lives
------------------
     ethr =  9.76E-08,  avg # of iterations =  3.2

     negative rho (up, down):  4.831E+00 4.824E+00


     ----------------------------------------------------------------

     Non-local correlation energy =              9.211252653065339

     ----------------------------------------------------------------


     total cpu time spent up to now is     9787.4 secs

     total energy              =  -11591.95082266 Ry
     estimated scf accuracy    <       0.00186969 Ry

     total magnetization       =     0.55 Bohr mag/cell
     absolute magnetization    =     0.65 Bohr mag/cell

     iteration # 29     ecut=    60.00 Ry     beta= 0.20
     CG style diagonalization

---- Real-time Memory Report at c_bands before calling an iterative solver
             0 MiB given to the printing process from OS
             0 MiB allocation reported by mallinfo(arena+hblkhd)
         85113 MiB available memory on the node where the printing process lives
------------------
     ethr =  9.76E-08,  avg # of iterations =  3.0

     negative rho (up, down):  4.832E+00 4.825E+00


     ----------------------------------------------------------------

     Non-local correlation energy =              9.211039563628900

     ----------------------------------------------------------------


     total cpu time spent up to now is    10035.8 secs

     total energy              =  -11591.95085355 Ry
     estimated scf accuracy    <       0.00045919 Ry

     total magnetization       =     0.53 Bohr mag/cell
     absolute magnetization    =     0.63 Bohr mag/cell

     iteration # 30     ecut=    60.00 Ry     beta= 0.20
     CG style diagonalization

---- Real-time Memory Report at c_bands before calling an iterative solver
             0 MiB given to the printing process from OS
             0 MiB allocation reported by mallinfo(arena+hblkhd)
         85117 MiB available memory on the node where the printing process lives
------------------
     ethr =  5.21E-08,  avg # of iterations =  3.2

     negative rho (up, down):  4.833E+00 4.827E+00


     ----------------------------------------------------------------

     Non-local correlation energy =              9.210910530564719

     ----------------------------------------------------------------


     total cpu time spent up to now is    10299.1 secs

     total energy              =  -11591.95084518 Ry
     estimated scf accuracy    <       0.00061543 Ry

     total magnetization       =     0.49 Bohr mag/cell
     absolute magnetization    =     0.58 Bohr mag/cell

     iteration # 31     ecut=    60.00 Ry     beta= 0.20
     CG style diagonalization

---- Real-time Memory Report at c_bands before calling an iterative solver
             0 MiB given to the printing process from OS
             0 MiB allocation reported by mallinfo(arena+hblkhd)
         85123 MiB available memory on the node where the printing process lives
------------------
     ethr =  5.21E-08,  avg # of iterations =  3.0

     negative rho (up, down):  4.833E+00 4.827E+00


     ----------------------------------------------------------------

     Non-local correlation energy =              9.210826233799324

     ----------------------------------------------------------------


     total cpu time spent up to now is    10543.6 secs

     total energy              =  -11591.95084994 Ry
     estimated scf accuracy    <       0.00045621 Ry

     total magnetization       =     0.46 Bohr mag/cell
     absolute magnetization    =     0.54 Bohr mag/cell

     iteration # 32     ecut=    60.00 Ry     beta= 0.20
     CG style diagonalization

---- Real-time Memory Report at c_bands before calling an iterative solver
             0 MiB given to the printing process from OS
             0 MiB allocation reported by mallinfo(arena+hblkhd)
         85122 MiB available memory on the node where the printing process lives
------------------
     ethr =  5.18E-08,  avg # of iterations =  3.0

     negative rho (up, down):  4.833E+00 4.828E+00


     ----------------------------------------------------------------

     Non-local correlation energy =              9.210750734777182

     ----------------------------------------------------------------


     total cpu time spent up to now is    10787.1 secs

     total energy              =  -11591.95085790 Ry
     estimated scf accuracy    <       0.00025736 Ry

     total magnetization       =     0.44 Bohr mag/cell
     absolute magnetization    =     0.52 Bohr mag/cell

     iteration # 33     ecut=    60.00 Ry     beta= 0.20
     CG style diagonalization

---- Real-time Memory Report at c_bands before calling an iterative solver
             0 MiB given to the printing process from OS
             0 MiB allocation reported by mallinfo(arena+hblkhd)
         85113 MiB available memory on the node where the printing process lives
------------------
     ethr =  2.92E-08,  avg # of iterations =  3.0

     negative rho (up, down):  4.833E+00 4.828E+00


     ----------------------------------------------------------------

     Non-local correlation energy =              9.210693663255768

     ----------------------------------------------------------------


     total cpu time spent up to now is    11030.2 secs

     total energy              =  -11591.95087053 Ry
     estimated scf accuracy    <       0.00008665 Ry

     total magnetization       =     0.41 Bohr mag/cell
     absolute magnetization    =     0.48 Bohr mag/cell

     iteration # 34     ecut=    60.00 Ry     beta= 0.20
     CG style diagonalization

---- Real-time Memory Report at c_bands before calling an iterative solver
             0 MiB given to the printing process from OS
             0 MiB allocation reported by mallinfo(arena+hblkhd)
         85122 MiB available memory on the node where the printing process lives
------------------
     ethr =  9.84E-09,  avg # of iterations =  3.0

     negative rho (up, down):  4.833E+00 4.828E+00


     ----------------------------------------------------------------

     Non-local correlation energy =              9.210675441424083

     ----------------------------------------------------------------


     total cpu time spent up to now is    11273.3 secs

     total energy              =  -11591.95088214 Ry
     estimated scf accuracy    <       0.00004909 Ry

     total magnetization       =     0.38 Bohr mag/cell
     absolute magnetization    =     0.45 Bohr mag/cell

     iteration # 35     ecut=    60.00 Ry     beta= 0.20
     CG style diagonalization

---- Real-time Memory Report at c_bands before calling an iterative solver
             0 MiB given to the printing process from OS
             0 MiB allocation reported by mallinfo(arena+hblkhd)
         85113 MiB available memory on the node where the printing process lives
------------------
     ethr =  5.57E-09,  avg # of iterations =  3.0

     negative rho (up, down):  4.832E+00 4.828E+00


     ----------------------------------------------------------------

     Non-local correlation energy =              9.210680023608889

     ----------------------------------------------------------------


     total cpu time spent up to now is    11516.4 secs

     total energy              =  -11591.95089639 Ry
     estimated scf accuracy    <       0.00002894 Ry

     total magnetization       =     0.36 Bohr mag/cell
     absolute magnetization    =     0.42 Bohr mag/cell

     iteration # 36     ecut=    60.00 Ry     beta= 0.20
     CG style diagonalization

---- Real-time Memory Report at c_bands before calling an iterative solver
             0 MiB given to the printing process from OS
             0 MiB allocation reported by mallinfo(arena+hblkhd)
         85103 MiB available memory on the node where the printing process lives
------------------
     ethr =  3.28E-09,  avg # of iterations =  3.0

     negative rho (up, down):  4.832E+00 4.828E+00


     ----------------------------------------------------------------

     Non-local correlation energy =              9.210679457559968

     ----------------------------------------------------------------


     total cpu time spent up to now is    11759.5 secs

     total energy              =  -11591.95090644 Ry
     estimated scf accuracy    <       0.00004463 Ry

     total magnetization       =     0.33 Bohr mag/cell
     absolute magnetization    =     0.39 Bohr mag/cell

     iteration # 37     ecut=    60.00 Ry     beta= 0.20
     CG style diagonalization

---- Real-time Memory Report at c_bands before calling an iterative solver
             0 MiB given to the printing process from OS
             0 MiB allocation reported by mallinfo(arena+hblkhd)
         85107 MiB available memory on the node where the printing process lives
------------------
     ethr =  3.28E-09,  avg # of iterations =  3.0

     negative rho (up, down):  4.831E+00 4.828E+00


     ----------------------------------------------------------------

     Non-local correlation energy =              9.210682822096885

     ----------------------------------------------------------------


     total cpu time spent up to now is    12002.5 secs

     total energy              =  -11591.95091079 Ry
     estimated scf accuracy    <       0.00010865 Ry

     total magnetization       =     0.31 Bohr mag/cell
     absolute magnetization    =     0.36 Bohr mag/cell

     iteration # 38     ecut=    60.00 Ry     beta= 0.20
     CG style diagonalization

---- Real-time Memory Report at c_bands before calling an iterative solver
             0 MiB given to the printing process from OS
             0 MiB allocation reported by mallinfo(arena+hblkhd)
         85106 MiB available memory on the node where the printing process lives
------------------
     ethr =  3.28E-09,  avg # of iterations =  3.0

     negative rho (up, down):  4.831E+00 4.828E+00


     ----------------------------------------------------------------

     Non-local correlation energy =              9.210690470491544

     ----------------------------------------------------------------


     total cpu time spent up to now is    12245.6 secs

     total energy              =  -11591.95091655 Ry
     estimated scf accuracy    <       0.00006821 Ry

     total magnetization       =     0.29 Bohr mag/cell
     absolute magnetization    =     0.35 Bohr mag/cell

     iteration # 39     ecut=    60.00 Ry     beta= 0.20
     CG style diagonalization

---- Real-time Memory Report at c_bands before calling an iterative solver
             0 MiB given to the printing process from OS
             0 MiB allocation reported by mallinfo(arena+hblkhd)
         85120 MiB available memory on the node where the printing process lives
------------------
     ethr =  3.28E-09,  avg # of iterations =  3.0

     negative rho (up, down):  4.831E+00 4.828E+00


     ----------------------------------------------------------------

     Non-local correlation energy =              9.210722281749838

     ----------------------------------------------------------------


     total cpu time spent up to now is    12489.3 secs

     total energy              =  -11591.95092783 Ry
     estimated scf accuracy    <       0.00003153 Ry

     total magnetization       =     0.28 Bohr mag/cell
     absolute magnetization    =     0.33 Bohr mag/cell

     iteration # 40     ecut=    60.00 Ry     beta= 0.20
     CG style diagonalization

---- Real-time Memory Report at c_bands before calling an iterative solver
             0 MiB given to the printing process from OS
             0 MiB allocation reported by mallinfo(arena+hblkhd)
         85088 MiB available memory on the node where the printing process lives
------------------
     ethr =  3.28E-09,  avg # of iterations =  3.0

     negative rho (up, down):  4.830E+00 4.828E+00


     ----------------------------------------------------------------

     Non-local correlation energy =              9.210741021041802

     ----------------------------------------------------------------


     total cpu time spent up to now is    12732.4 secs

     total energy              =  -11591.95093358 Ry
     estimated scf accuracy    <       0.00001819 Ry

     total magnetization       =     0.25 Bohr mag/cell
     absolute magnetization    =     0.29 Bohr mag/cell

     iteration # 41     ecut=    60.00 Ry     beta= 0.20
     CG style diagonalization

---- Real-time Memory Report at c_bands before calling an iterative solver
             0 MiB given to the printing process from OS
             0 MiB allocation reported by mallinfo(arena+hblkhd)
         85083 MiB available memory on the node where the printing process lives
------------------
     ethr =  2.06E-09,  avg # of iterations =  3.0

     negative rho (up, down):  4.830E+00 4.828E+00


     ----------------------------------------------------------------

     Non-local correlation energy =              9.210758680135500

     ----------------------------------------------------------------


     total cpu time spent up to now is    12975.5 secs

     total energy              =  -11591.95093663 Ry
     estimated scf accuracy    <       0.00001956 Ry

     total magnetization       =     0.23 Bohr mag/cell
     absolute magnetization    =     0.27 Bohr mag/cell

     iteration # 42     ecut=    60.00 Ry     beta= 0.20
     CG style diagonalization

---- Real-time Memory Report at c_bands before calling an iterative solver
             0 MiB given to the printing process from OS
             0 MiB allocation reported by mallinfo(arena+hblkhd)
         85100 MiB available memory on the node where the printing process lives
------------------
     ethr =  2.06E-09,  avg # of iterations =  3.0

     negative rho (up, down):  4.830E+00 4.828E+00


     ----------------------------------------------------------------

     Non-local correlation energy =              9.210781208367660

     ----------------------------------------------------------------


     total cpu time spent up to now is    13218.7 secs

     total energy              =  -11591.95093951 Ry
     estimated scf accuracy    <       0.00001891 Ry

     total magnetization       =     0.22 Bohr mag/cell
     absolute magnetization    =     0.26 Bohr mag/cell

     iteration # 43     ecut=    60.00 Ry     beta= 0.20
     CG style diagonalization

---- Real-time Memory Report at c_bands before calling an iterative solver
             0 MiB given to the printing process from OS
             0 MiB allocation reported by mallinfo(arena+hblkhd)
         85097 MiB available memory on the node where the printing process lives
------------------
     ethr =  2.06E-09,  avg # of iterations =  3.0

     negative rho (up, down):  4.829E+00 4.828E+00


     ----------------------------------------------------------------

     Non-local correlation energy =              9.210812645439086

     ----------------------------------------------------------------


     total cpu time spent up to now is    13461.9 secs

     total energy              =  -11591.95094191 Ry
     estimated scf accuracy    <       0.00000701 Ry

     total magnetization       =     0.20 Bohr mag/cell
     absolute magnetization    =     0.24 Bohr mag/cell

     iteration # 44     ecut=    60.00 Ry     beta= 0.20
     CG style diagonalization

---- Real-time Memory Report at c_bands before calling an iterative solver
             0 MiB given to the printing process from OS
             0 MiB allocation reported by mallinfo(arena+hblkhd)
         85123 MiB available memory on the node where the printing process lives
------------------
     ethr =  7.96E-10,  avg # of iterations =  3.0

     negative rho (up, down):  4.829E+00 4.828E+00


     ----------------------------------------------------------------

     Non-local correlation energy =              9.210834451844230

     ----------------------------------------------------------------


     total cpu time spent up to now is    13705.4 secs

     total energy              =  -11591.95094305 Ry
     estimated scf accuracy    <       0.00000497 Ry

     total magnetization       =     0.18 Bohr mag/cell
     absolute magnetization    =     0.21 Bohr mag/cell

     iteration # 45     ecut=    60.00 Ry     beta= 0.20
     CG style diagonalization

---- Real-time Memory Report at c_bands before calling an iterative solver
             0 MiB given to the printing process from OS
             0 MiB allocation reported by mallinfo(arena+hblkhd)
         85086 MiB available memory on the node where the printing process lives
------------------
     ethr =  5.65E-10,  avg # of iterations =  3.0

     negative rho (up, down):  4.829E+00 4.828E+00


     ----------------------------------------------------------------

     Non-local correlation energy =              9.210856330079901

     ----------------------------------------------------------------


     total cpu time spent up to now is    13948.7 secs

     total energy              =  -11591.95094352 Ry
     estimated scf accuracy    <       0.00000358 Ry

     total magnetization       =     0.16 Bohr mag/cell
     absolute magnetization    =     0.19 Bohr mag/cell

     iteration # 46     ecut=    60.00 Ry     beta= 0.20
     CG style diagonalization

---- Real-time Memory Report at c_bands before calling an iterative solver
             0 MiB given to the printing process from OS
             0 MiB allocation reported by mallinfo(arena+hblkhd)
         85086 MiB available memory on the node where the printing process lives
------------------
     ethr =  4.07E-10,  avg # of iterations =  3.0

     negative rho (up, down):  4.829E+00 4.828E+00


     ----------------------------------------------------------------

     Non-local correlation energy =              9.210874784194715

     ----------------------------------------------------------------


     total cpu time spent up to now is    14192.5 secs

     total energy              =  -11591.95094364 Ry
     estimated scf accuracy    <       0.00000401 Ry

     total magnetization       =     0.15 Bohr mag/cell
     absolute magnetization    =     0.17 Bohr mag/cell

     iteration # 47     ecut=    60.00 Ry     beta= 0.20
     CG style diagonalization

---- Real-time Memory Report at c_bands before calling an iterative solver
             0 MiB given to the printing process from OS
             0 MiB allocation reported by mallinfo(arena+hblkhd)
         85092 MiB available memory on the node where the printing process lives
------------------
     ethr =  4.07E-10,  avg # of iterations =  3.0

     negative rho (up, down):  4.829E+00 4.828E+00


     ----------------------------------------------------------------

     Non-local correlation energy =              9.210879851934386

     ----------------------------------------------------------------


     total cpu time spent up to now is    14435.8 secs

     total energy              =  -11591.95094386 Ry
     estimated scf accuracy    <       0.00000668 Ry

     total magnetization       =     0.13 Bohr mag/cell
     absolute magnetization    =     0.15 Bohr mag/cell

     iteration # 48     ecut=    60.00 Ry     beta= 0.20
     CG style diagonalization

---- Real-time Memory Report at c_bands before calling an iterative solver
             0 MiB given to the printing process from OS
             0 MiB allocation reported by mallinfo(arena+hblkhd)
         85098 MiB available memory on the node where the printing process lives
------------------
     ethr =  4.07E-10,  avg # of iterations =  3.0

     negative rho (up, down):  4.829E+00 4.828E+00


     ----------------------------------------------------------------

     Non-local correlation energy =              9.210885805926496

     ----------------------------------------------------------------


     total cpu time spent up to now is    14678.9 secs

     total energy              =  -11591.95094392 Ry
     estimated scf accuracy    <       0.00000677 Ry

     total magnetization       =     0.12 Bohr mag/cell
     absolute magnetization    =     0.15 Bohr mag/cell

     iteration # 49     ecut=    60.00 Ry     beta= 0.20
     CG style diagonalization

---- Real-time Memory Report at c_bands before calling an iterative solver
             0 MiB given to the printing process from OS
             0 MiB allocation reported by mallinfo(arena+hblkhd)
         85099 MiB available memory on the node where the printing process lives
------------------
     ethr =  4.07E-10,  avg # of iterations =  3.0

     negative rho (up, down):  4.828E+00 4.828E+00


     ----------------------------------------------------------------

     Non-local correlation energy =              9.210896614750411

     ----------------------------------------------------------------


     total cpu time spent up to now is    14922.0 secs

     total energy              =  -11591.95094400 Ry
     estimated scf accuracy    <       0.00000390 Ry

     total magnetization       =     0.12 Bohr mag/cell
     absolute magnetization    =     0.14 Bohr mag/cell

     iteration # 50     ecut=    60.00 Ry     beta= 0.20
     CG style diagonalization

---- Real-time Memory Report at c_bands before calling an iterative solver
             0 MiB given to the printing process from OS
             0 MiB allocation reported by mallinfo(arena+hblkhd)
         85121 MiB available memory on the node where the printing process lives
------------------
     ethr =  4.07E-10,  avg # of iterations =  3.0

     negative rho (up, down):  4.828E+00 4.828E+00


     ----------------------------------------------------------------

     Non-local correlation energy =              9.210904667214390

     ----------------------------------------------------------------


     total cpu time spent up to now is    15165.0 secs

     total energy              =  -11591.95094419 Ry
     estimated scf accuracy    <       0.00000242 Ry

     total magnetization       =     0.11 Bohr mag/cell
     absolute magnetization    =     0.13 Bohr mag/cell

     iteration # 51     ecut=    60.00 Ry     beta= 0.20
     CG style diagonalization

---- Real-time Memory Report at c_bands before calling an iterative solver
             0 MiB given to the printing process from OS
             0 MiB allocation reported by mallinfo(arena+hblkhd)
         85070 MiB available memory on the node where the printing process lives
------------------
     ethr =  2.75E-10,  avg # of iterations =  3.0

     negative rho (up, down):  4.828E+00 4.828E+00


     ----------------------------------------------------------------

     Non-local correlation energy =              9.210908663187629

     ----------------------------------------------------------------


     total cpu time spent up to now is    15408.2 secs

     total energy              =  -11591.95094457 Ry
     estimated scf accuracy    <       0.00000147 Ry

     total magnetization       =     0.10 Bohr mag/cell
     absolute magnetization    =     0.12 Bohr mag/cell

     iteration # 52     ecut=    60.00 Ry     beta= 0.20
     CG style diagonalization

---- Real-time Memory Report at c_bands before calling an iterative solver
             0 MiB given to the printing process from OS
             0 MiB allocation reported by mallinfo(arena+hblkhd)
         85087 MiB available memory on the node where the printing process lives
------------------
     ethr =  1.67E-10,  avg # of iterations =  3.0

     negative rho (up, down):  4.828E+00 4.828E+00


     ----------------------------------------------------------------

     Non-local correlation energy =              9.210911392835651

     ----------------------------------------------------------------


     total cpu time spent up to now is    15651.9 secs

     total energy              =  -11591.95094489 Ry
     estimated scf accuracy    <       0.00000273 Ry

     total magnetization       =     0.09 Bohr mag/cell
     absolute magnetization    =     0.11 Bohr mag/cell

     iteration # 53     ecut=    60.00 Ry     beta= 0.20
     CG style diagonalization

---- Real-time Memory Report at c_bands before calling an iterative solver
             0 MiB given to the printing process from OS
             0 MiB allocation reported by mallinfo(arena+hblkhd)
         85076 MiB available memory on the node where the printing process lives
------------------
     ethr =  1.67E-10,  avg # of iterations =  3.0

     negative rho (up, down):  4.828E+00 4.828E+00


     ----------------------------------------------------------------

     Non-local correlation energy =              9.210914849855786

     ----------------------------------------------------------------


     total cpu time spent up to now is    15894.9 secs

     total energy              =  -11591.95094543 Ry
     estimated scf accuracy    <       0.00000107 Ry

     total magnetization       =     0.08 Bohr mag/cell
     absolute magnetization    =     0.10 Bohr mag/cell

     iteration # 54     ecut=    60.00 Ry     beta= 0.20
     CG style diagonalization

---- Real-time Memory Report at c_bands before calling an iterative solver
             0 MiB given to the printing process from OS
             0 MiB allocation reported by mallinfo(arena+hblkhd)
         85107 MiB available memory on the node where the printing process lives
------------------
     ethr =  1.21E-10,  avg # of iterations =  3.0

     negative rho (up, down):  4.828E+00 4.828E+00


     ----------------------------------------------------------------

     Non-local correlation energy =              9.210886158406911

     ----------------------------------------------------------------

 
     Magnetic moment per site  (integrated on atomic sphere of radius R)
     atom   1 (R=0.035)  charge=  8.8611  magn=  0.0002
     atom   2 (R=0.035)  charge=  8.8624  magn=  0.0007
     atom   3 (R=0.035)  charge=  8.8635  magn=  0.0002
     atom   4 (R=0.035)  charge=  8.8625  magn=  0.0092
     atom   5 (R=0.035)  charge=  8.8728  magn=  0.0076
     atom   6 (R=0.035)  charge=  8.8616  magn=  0.0012
     atom   7 (R=0.035)  charge=  8.8837  magn=  0.0007
     atom   8 (R=0.035)  charge=  8.8597  magn= -0.0001
     atom   9 (R=0.035)  charge=  8.8520  magn=  0.0001
     atom  10 (R=0.035)  charge=  8.8591  magn=  0.0031
     atom  11 (R=0.035)  charge=  8.8475  magn=  0.0001
     atom  12 (R=0.035)  charge=  8.8626  magn=  0.0000
     atom  13 (R=0.035)  charge=  8.8640  magn=  0.0014
     atom  14 (R=0.035)  charge=  8.8847  magn=  0.0011
     atom  15 (R=0.035)  charge=  8.8652  magn=  0.0002
     atom  16 (R=0.035)  charge=  8.8684  magn= -0.0002
     atom  17 (R=0.035)  charge=  8.8642  magn= -0.0002
     atom  18 (R=0.035)  charge=  8.8734  magn=  0.0002
     atom  19 (R=0.035)  charge=  8.8561  magn=  0.0010
     atom  20 (R=0.035)  charge=  8.8757  magn= -0.0003
     atom  21 (R=0.035)  charge=  8.8636  magn=  0.0001
     atom  22 (R=0.035)  charge=  8.8739  magn=  0.0001
     atom  23 (R=0.035)  charge=  8.8696  magn=  0.0010
     atom  24 (R=0.035)  charge=  8.8670  magn= -0.0003
     atom  25 (R=0.035)  charge=  8.8687  magn=  0.0003
     atom  26 (R=0.035)  charge=  8.8781  magn= -0.0001
     atom  27 (R=0.035)  charge=  8.8597  magn=  0.0015
     atom  28 (R=0.035)  charge=  8.8617  magn=  0.0001
     atom  29 (R=0.035)  charge=  8.8646  magn= -0.0002
     atom  30 (R=0.035)  charge=  8.8719  magn= -0.0001
     atom  31 (R=0.035)  charge=  8.8729  magn=  0.0000
     atom  32 (R=0.035)  charge=  8.8563  magn=  0.0003
     atom  33 (R=0.035)  charge=  8.8612  magn= -0.0002
     atom  34 (R=0.035)  charge=  8.8729  magn= -0.0005
     atom  35 (R=0.035)  charge=  8.8580  magn=  0.0017
     atom  36 (R=0.035)  charge=  8.8606  magn=  0.0003
     atom  37 (R=0.035)  charge=  8.8598  magn=  0.0003
     atom  38 (R=0.035)  charge=  8.8565  magn=  0.0002
     atom  39 (R=0.035)  charge=  8.8572  magn= -0.0002
     atom  40 (R=0.035)  charge=  8.8779  magn=  0.0007
     atom  41 (R=0.035)  charge=  8.8618  magn=  0.0001
     atom  42 (R=0.035)  charge=  8.8501  magn=  0.0016
     atom  43 (R=0.035)  charge=  8.8642  magn=  0.0004
     atom  44 (R=0.035)  charge=  8.8577  magn=  0.0002
     atom  45 (R=0.035)  charge=  8.8585  magn=  0.0001
     atom  46 (R=0.035)  charge=  8.8616  magn=  0.0005
     atom  47 (R=0.035)  charge=  8.8574  magn=  0.0000
     atom  48 (R=0.035)  charge=  8.8636  magn= -0.0001
     atom  49 (R=0.035)  charge=  8.8782  magn=  0.0004
     atom  50 (R=0.035)  charge=  8.8593  magn= -0.0002
     atom  51 (R=0.035)  charge=  8.8609  magn=  0.0007
     atom  52 (R=0.035)  charge=  8.8591  magn=  0.0005
     atom  53 (R=0.035)  charge=  8.8501  magn=  0.0028
     atom  54 (R=0.035)  charge=  8.8605  magn= -0.0001
     atom  55 (R=0.035)  charge=  8.8841  magn=  0.0000
     atom  56 (R=0.035)  charge=  0.8294  magn=  0.0001

     total cpu time spent up to now is    16139.5 secs

     End of self-consistent calculation

 ------ SPIN UP ------------


          k = 0.0000 0.0000 0.0000 (211851 PWs)   bands (ev):

   -56.0586 -55.9092 -55.8147 -55.7959 -55.7241 -55.6947 -55.6618 -55.6118
   -55.5818 -55.5686 -55.5534 -55.5273 -55.5199 -55.5191 -55.4706 -55.4643
   -55.4527 -55.4466 -55.4154 -55.4071 -55.4024 -55.3879 -55.3860 -55.3720
   -55.3682 -55.3592 -55.3381 -55.3373 -55.3249 -55.3211 -55.3182 -55.3082
   -55.3021 -55.2993 -55.2949 -55.2912 -55.2903 -55.2684 -55.2593 -55.2427
   -55.2375 -55.2321 -55.2248 -55.2131 -55.2074 -55.2000 -55.1912 -55.1647
   -55.1615 -55.1482 -55.1417 -55.1365 -55.1290 -55.1224 -55.1143 -55.1135
   -55.1014 -55.0924 -55.0877 -55.0808 -55.0792 -55.0764 -55.0639 -55.0546
   -55.0522 -55.0471 -55.0429 -55.0410 -55.0327 -55.0288 -55.0202 -55.0150
   -55.0094 -55.0048 -54.9995 -54.9868 -54.9778 -54.9711 -54.9690 -54.9561
   -54.9529 -54.9440 -54.9376 -54.9311 -54.9234 -54.9180 -54.9075 -54.8969
   -54.8858 -54.8829 -54.8801 -54.8751 -54.8694 -54.8620 -54.8552 -54.8542
   -54.8502 -54.8414 -54.8359 -54.8339 -54.8242 -54.8229 -54.8205 -54.8154
   -54.8114 -54.8084 -54.8060 -54.8037 -54.7901 -54.7843 -54.7791 -54.7742
   -54.7707 -54.7680 -54.7638 -54.7583 -54.7521 -54.7496 -54.7450 -54.7398
   -54.7338 -54.7311 -54.7274 -54.7251 -54.7206 -54.7147 -54.7133 -54.6960
   -54.6867 -54.6801 -54.6641 -54.6606 -54.6585 -54.6460 -54.6373 -54.6327
   -54.6230 -54.6184 -54.6109 -54.5970 -54.5960 -54.5825 -54.5716 -54.5646
   -54.5585 -54.5569 -54.5379 -54.5257 -54.5018 -54.4970 -54.4924 -54.4789
   -54.4710 -54.4163 -54.4153 -54.4096 -54.4053 -54.3884 -54.3875 -54.3820
   -54.3391 -54.3173 -54.2874 -54.2839 -54.2554 -10.9445 -10.0255  -9.9814
    -9.7922  -9.1974  -9.0838  -9.0656  -9.0409  -8.9990  -8.8619  -8.8297
    -8.7497  -8.6942  -8.6734  -8.5596  -8.5295  -8.5005  -8.4627  -8.4481
    -8.3512  -8.2748  -8.2459  -8.2108  -8.1633  -8.1431  -8.1168  -8.0981
    -8.0761  -8.0335  -8.0070  -7.9961  -7.9907  -7.9392  -7.9288  -7.9047
    -7.8897  -7.8687  -7.8503  -7.8290  -7.8040  -7.7614  -7.7491  -7.7354
    -7.6636  -7.6524  -7.6309  -7.6026  -7.5651  -7.5398  -7.5250  -7.5030
    -7.4634  -7.4315  -7.3651  -7.3275  -7.3239  -7.3008  -7.2352  -7.2289
    -7.2083  -7.1784  -7.1620  -7.1571  -7.1105  -7.1053  -7.0950  -7.0577
    -7.0326  -7.0248  -6.9929  -6.9701  -6.9575  -6.9409  -6.9058  -6.9040
    -6.8791  -6.8678  -6.8499  -6.8209  -6.7545  -6.7316  -6.7119  -6.6944
    -6.6647  -6.6457  -6.6329  -6.6182  -6.5755  -6.5599  -6.5554  -6.5049
    -6.4760  -6.4531  -6.4387  -6.4270  -6.3890  -6.3326  -6.3135  -6.3109
    -6.2722  -6.2626  -6.2152  -6.1817  -6.1179  -6.1077  -6.0864  -6.0545
    -6.0466  -6.0294  -5.9673  -5.9270  -5.9164  -5.8623  -5.8043  -5.7904
    -5.7313  -5.6900  -5.6700  -5.6527  -5.6304  -5.6234  -5.5894  -5.5467
    -5.5296  -5.5009  -5.4820  -5.4647  -5.4521  -5.4173  -5.4062  -5.3918
    -5.3835  -5.3581  -5.3198  -5.3023  -5.2793  -5.2698  -5.2442  -5.2235
    -5.1933  -5.1818  -5.1484  -5.1115  -5.0840  -5.0671  -5.0529  -5.0262
    -5.0113  -4.9811  -4.9716  -4.9251  -4.9016  -4.8994  -4.8710  -4.8507
    -4.8360  -4.8274  -4.7881  -4.7790  -4.7458  -4.7010  -4.6850  -4.6814
    -4.6708  -4.6354  -4.5965  -4.5800  -4.5687  -4.5248  -4.5006  -4.4941
    -4.4647  -4.4403  -4.4227  -4.3997  -4.3909  -4.3601  -4.3477  -4.3392
    -4.3158  -4.3026  -4.2530  -4.2336  -4.2189  -4.1987  -4.1791  -4.1630
    -4.1307  -4.1170  -4.0990  -4.0779  -4.0594  -4.0539  -4.0384  -4.0300
    -3.9914  -3.9736  -3.9426  -3.9289  -3.9252  -3.9042  -3.8826  -3.8566
    -3.8439  -3.8381  -3.8156  -3.7999  -3.7913  -3.7711  -3.7515  -3.7280
    -3.7185  -3.7132  -3.6707  -3.6612  -3.6527  -3.6356  -3.6173  -3.6077
    -3.5818  -3.5568  -3.5386  -3.5296  -3.5125  -3.5028  -3.4855  -3.4714
    -3.4545  -3.4361  -3.4314  -3.4138  -3.4108  -3.4057  -3.3974  -3.3675
    -3.3506  -3.3397  -3.3373  -3.3231  -3.3088  -3.2931  -3.2832  -3.2810
    -3.2685  -3.2492  -3.2378  -3.2230  -3.2156  -3.2011  -3.1853  -3.1642
    -3.1447  -3.1399  -3.1152  -3.1024  -3.0897  -3.0805  -3.0622  -3.0487
    -3.0304  -3.0114  -2.9730  -2.9608  -2.9475  -2.9250  -2.9039  -2.8929
    -2.8797  -2.8737  -2.8186  -2.7867  -2.7503  -2.7229  -2.6876  -2.6696
    -2.5997  -2.5656  -2.5337  -2.5145  -2.4920  -2.4674  -2.4439  -2.4187
    -2.4098  -2.3624  -2.3524  -2.3227  -2.3011  -2.2948  -2.2665  -2.2590
    -2.2052  -2.1392  -2.1163  -2.0728  -2.0488  -1.9991  -1.9294  -1.8540
    -1.7567  -1.7169  -1.6810  -1.5832  -1.5270  -1.3444  -1.1137  -0.9075
    -0.8136  -0.7333  -0.6843  -0.5929  -0.5584  -0.4534  -0.4127  -0.3985
    -0.3173  -0.2108  -0.1515  -0.0586   0.0784   0.2013   0.3025   0.4318
     0.7025   0.8528   0.8652   0.9904   1.0491   1.1159   1.1769   1.2484
     1.3133   1.3404   1.3974   1.5396   1.5636   1.6975   1.7649   1.8273
     1.9743   2.0300   2.0555   2.1411   2.1538   2.2131   2.2961   2.3437
     2.4075   2.4327   2.4952   2.5012   2.5159   2.5268   2.5401   2.6024
     2.6508   2.6883   2.7048   2.7083   2.7308   2.7462   2.7777   2.8244
     2.8392

     occupation numbers 
     1.0000   1.0000   1.0000   1.0000   1.0000   1.0000   1.0000   1.0000
     1.0000   1.0000   1.0000   1.0000   1.0000   1.0000   1.0000   1.0000
     1.0000   1.0000   1.0000   1.0000   1.0000   1.0000   1.0000   1.0000
     1.0000   1.0000   1.0000   1.0000   1.0000   1.0000   1.0000   1.0000
     1.0000   1.0000   1.0000   1.0000   1.0000   1.0000   1.0000   1.0000
     1.0000   1.0000   1.0000   1.0000   1.0000   1.0000   1.0000   1.0000
     1.0000   1.0000   1.0000   1.0000   1.0000   1.0000   1.0000   1.0000
     1.0000   1.0000   1.0000   1.0000   1.0000   1.0000   1.0000   1.0000
     1.0000   1.0000   1.0000   1.0000   1.0000   1.0000   1.0000   1.0000
     1.0000   1.0000   1.0000   1.0000   1.0000   1.0000   1.0000   1.0000
     1.0000   1.0000   1.0000   1.0000   1.0000   1.0000   1.0000   1.0000
     1.0000   1.0000   1.0000   1.0000   1.0000   1.0000   1.0000   1.0000
     1.0000   1.0000   1.0000   1.0000   1.0000   1.0000   1.0000   1.0000
     1.0000   1.0000   1.0000   1.0000   1.0000   1.0000   1.0000   1.0000
[...]
     atom   11 type  1   force =     0.01158112   -0.00279293    0.00060866
     atom   12 type  1   force =    -0.00041819    0.01928472   -0.00795425
     atom   13 type  1   force =     0.01876975   -0.00040269    0.00114194
     atom   14 type  1   force =     0.00545009    0.00883539   -0.01539614
     atom   15 type  1   force =     0.02242777    0.01263468   -0.00163618
     atom   16 type  1   force =    -0.02375925    0.00151996    0.00167121
     atom   17 type  1   force =    -0.00710462   -0.02236204   -0.00602689
     atom   18 type  1   force =    -0.01233288    0.00571184    0.01091780
     atom   19 type  1   force =    -0.01143224    0.00755859    0.00129057
     atom   20 type  1   force =     0.00965611   -0.00795545    0.00189489
     atom   21 type  1   force =     0.01198775    0.01862943    0.01083950
     atom   22 type  1   force =    -0.00224877   -0.01539216   -0.00806893
     atom   23 type  1   force =    -0.00934844    0.00831864    0.01683104
     atom   24 type  1   force =    -0.02294591    0.00630116   -0.00376200
     atom   25 type  1   force =    -0.02189089   -0.01344281    0.02081160
     atom   26 type  1   force =    -0.01168934   -0.01255193   -0.00262695
     atom   27 type  1   force =     0.00654726   -0.01660190    0.00653063
     atom   28 type  1   force =     0.00085752    0.00934636    0.00559872
     atom   29 type  1   force =     0.00097179    0.00630040   -0.00068352
     atom   30 type  1   force =    -0.01018608   -0.00164673   -0.01027426
     atom   31 type  1   force =    -0.00998541    0.01277203   -0.00241183
     atom   32 type  1   force =     0.01569944    0.00094986    0.00395131
     atom   33 type  1   force =    -0.00447302   -0.00327891   -0.02253956
     atom   34 type  1   force =     0.01229335   -0.01773290   -0.02060209
     atom   35 type  1   force =     0.00024062   -0.00483703   -0.00206281
     atom   36 type  1   force =    -0.00771915    0.01401245    0.01641649
     atom   37 type  1   force =     0.01965887   -0.00444878    0.01036160
     atom   38 type  1   force =    -0.00369804    0.00353426    0.01582496
     atom   39 type  1   force =    -0.01731172   -0.00812457   -0.00803968
     atom   40 type  1   force =     0.01227787    0.01461166   -0.00147112
     atom   41 type  1   force =    -0.01163614    0.01335255   -0.02280258
     atom   42 type  1   force =    -0.00343472    0.01868313    0.00066177
     atom   43 type  1   force =    -0.00675417    0.01379304   -0.01588494
     atom   44 type  1   force =    -0.00406543   -0.01935545    0.00581293
     atom   45 type  1   force =     0.00094823   -0.01976757    0.00429417
     atom   46 type  1   force =     0.01176575   -0.01977913    0.00745777
     atom   47 type  1   force =    -0.00168018   -0.00025835   -0.01973586
     atom   48 type  1   force =     0.00635452   -0.02117126   -0.00900265
     atom   49 type  1   force =    -0.00145049   -0.00929069    0.01316720
     atom   50 type  1   force =     0.00060522   -0.00806215   -0.01845187
     atom   51 type  1   force =    -0.00617567    0.01771849    0.00858121
     atom   52 type  1   force =    -0.01625054    0.01220412    0.00581249
     atom   53 type  1   force =     0.00450604   -0.01596091   -0.01288245
     atom   54 type  1   force =    -0.00795937   -0.01228517   -0.01776971
     atom   55 type  1   force =     0.01591392   -0.00183724   -0.01122752
     atom   56 type  2   force =     0.00000000    0.00000000    0.00000000
     The Hubbard contrib.    to forces
     atom    1 type  1   force =     0.00000000    0.00000000    0.00000000
     atom    2 type  1   force =     0.00000000    0.00000000    0.00000000
     atom    3 type  1   force =     0.00000000    0.00000000    0.00000000
     atom    4 type  1   force =     0.00000000    0.00000000    0.00000000
     atom    5 type  1   force =     0.00000000    0.00000000    0.00000000
     atom    6 type  1   force =     0.00000000    0.00000000    0.00000000
     atom    7 type  1   force =     0.00000000    0.00000000    0.00000000
     atom    8 type  1   force =     0.00000000    0.00000000    0.00000000
     atom    9 type  1   force =     0.00000000    0.00000000    0.00000000
     atom   10 type  1   force =     0.00000000    0.00000000    0.00000000
     atom   11 type  1   force =     0.00000000    0.00000000    0.00000000
     atom   12 type  1   force =     0.00000000    0.00000000    0.00000000
     atom   13 type  1   force =     0.00000000    0.00000000    0.00000000
     atom   14 type  1   force =     0.00000000    0.00000000    0.00000000
     atom   15 type  1   force =     0.00000000    0.00000000    0.00000000
     atom   16 type  1   force =     0.00000000    0.00000000    0.00000000
     atom   17 type  1   force =     0.00000000    0.00000000    0.00000000
     atom   18 type  1   force =     0.00000000    0.00000000    0.00000000
     atom   19 type  1   force =     0.00000000    0.00000000    0.00000000
     atom   20 type  1   force =     0.00000000    0.00000000    0.00000000
     atom   21 type  1   force =     0.00000000    0.00000000    0.00000000
     atom   22 type  1   force =     0.00000000    0.00000000    0.00000000
     atom   23 type  1   force =     0.00000000    0.00000000    0.00000000
     atom   24 type  1   force =     0.00000000    0.00000000    0.00000000
     atom   25 type  1   force =     0.00000000    0.00000000    0.00000000
     atom   26 type  1   force =     0.00000000    0.00000000    0.00000000
     atom   27 type  1   force =     0.00000000    0.00000000    0.00000000
     atom   28 type  1   force =     0.00000000    0.00000000    0.00000000
     atom   29 type  1   force =     0.00000000    0.00000000    0.00000000
     atom   30 type  1   force =     0.00000000    0.00000000    0.00000000
     atom   31 type  1   force =     0.00000000    0.00000000    0.00000000
     atom   32 type  1   force =     0.00000000    0.00000000    0.00000000
     atom   33 type  1   force =     0.00000000    0.00000000    0.00000000
     atom   34 type  1   force =     0.00000000    0.00000000    0.00000000
     atom   35 type  1   force =     0.00000000    0.00000000    0.00000000
     atom   36 type  1   force =     0.00000000    0.00000000    0.00000000
     atom   37 type  1   force =     0.00000000    0.00000000    0.00000000
     atom   38 type  1   force =     0.00000000    0.00000000    0.00000000
     atom   39 type  1   force =     0.00000000    0.00000000    0.00000000
     atom   40 type  1   force =     0.00000000    0.00000000    0.00000000
     atom   41 type  1   force =     0.00000000    0.00000000    0.00000000
     atom   42 type  1   force =     0.00000000    0.00000000    0.00000000
     atom   43 type  1   force =     0.00000000    0.00000000    0.00000000
     atom   44 type  1   force =     0.00000000    0.00000000    0.00000000
     atom   45 type  1   force =     0.00000000    0.00000000    0.00000000
     atom   46 type  1   force =     0.00000000    0.00000000    0.00000000
     atom   47 type  1   force =     0.00000000    0.00000000    0.00000000
     atom   48 type  1   force =     0.00000000    0.00000000    0.00000000
     atom   49 type  1   force =     0.00000000    0.00000000    0.00000000
     atom   50 type  1   force =     0.00000000    0.00000000    0.00000000
     atom   51 type  1   force =     0.00000000    0.00000000    0.00000000
     atom   52 type  1   force =     0.00000000    0.00000000    0.00000000
     atom   53 type  1   force =     0.00000000    0.00000000    0.00000000
     atom   54 type  1   force =     0.00000000    0.00000000    0.00000000
     atom   55 type  1   force =     0.00000000    0.00000000    0.00000000
     atom   56 type  2   force =     0.00000000    0.00000000    0.00000000
     The SCF correction term to forces
     atom    1 type  1   force =     0.00002952    0.00002110   -0.00000209
     atom    2 type  1   force =    -0.00001686    0.00002673   -0.00002733
     atom    3 type  1   force =     0.00000904    0.00002508   -0.00001103
     atom    4 type  1   force =     0.00002677    0.00001311   -0.00000890
     atom    5 type  1   force =     0.00003288   -0.00000044    0.00001380
     atom    6 type  1   force =     0.00001524   -0.00001199    0.00002890
     atom    7 type  1   force =     0.00003606    0.00001370    0.00001462
     atom    8 type  1   force =    -0.00000718   -0.00001000    0.00001356
     atom    9 type  1   force =    -0.00003009    0.00000246   -0.00004434
     atom   10 type  1   force =    -0.00002103   -0.00000736   -0.00004028
     atom   11 type  1   force =    -0.00002298   -0.00000677   -0.00006439
     atom   12 type  1   force =    -0.00002419   -0.00000539   -0.00002293
     atom   13 type  1   force =     0.00002980    0.00002184    0.00001108
     atom   14 type  1   force =    -0.00002273   -0.00000184    0.00000003
     atom   15 type  1   force =    -0.00000905    0.00000787    0.00001543
     atom   16 type  1   force =    -0.00000765   -0.00000178   -0.00004058
     atom   17 type  1   force =    -0.00000275    0.00000001   -0.00005284
     atom   18 type  1   force =    -0.00003707    0.00000922   -0.00000742
     atom   19 type  1   force =     0.00000993   -0.00000408   -0.00004605
     atom   20 type  1   force =     0.00000035    0.00000011   -0.00001036
     atom   21 type  1   force =     0.00002156    0.00002912   -0.00000221
     atom   22 type  1   force =    -0.00002165    0.00001158   -0.00002195
     atom   23 type  1   force =     0.00002217    0.00001017    0.00001634
     atom   24 type  1   force =     0.00000954    0.00000368   -0.00003317
     atom   25 type  1   force =    -0.00003562   -0.00001992   -0.00001306
     atom   26 type  1   force =    -0.00000321   -0.00000554   -0.00003029
     atom   27 type  1   force =     0.00000396   -0.00003023   -0.00000004
     atom   28 type  1   force =    -0.00003383   -0.00002841   -0.00006176
     atom   29 type  1   force =    -0.00002911   -0.00001802   -0.00001843
     atom   30 type  1   force =     0.00002334   -0.00000669    0.00000356
     atom   31 type  1   force =    -0.00000823   -0.00000473   -0.00003259
     atom   32 type  1   force =     0.00000169    0.00000950    0.00000106
     atom   33 type  1   force =    -0.00004364   -0.00000775   -0.00000011
     atom   34 type  1   force =    -0.00001572   -0.00002494    0.00000109
     atom   35 type  1   force =     0.00001136    0.00001817   -0.00003710
     atom   36 type  1   force =    -0.00001858    0.00003185   -0.00001232
     atom   37 type  1   force =     0.00001454    0.00000178   -0.00001196
     atom   38 type  1   force =    -0.00001445   -0.00000748    0.00000521
     atom   39 type  1   force =     0.00002403   -0.00000048   -0.00003006
     atom   40 type  1   force =    -0.00000304    0.00001758    0.00001163
     atom   41 type  1   force =    -0.00001545   -0.00001316   -0.00001123
     atom   42 type  1   force =    -0.00001442   -0.00000543   -0.00000004
     atom   43 type  1   force =    -0.00003487   -0.00001586    0.00000080
     atom   44 type  1   force =    -0.00003194   -0.00002830   -0.00003362
     atom   45 type  1   force =    -0.00001933   -0.00001572   -0.00006802
     atom   46 type  1   force =     0.00001949   -0.00001891   -0.00003817
     atom   47 type  1   force =    -0.00003241   -0.00001464   -0.00000222
     atom   48 type  1   force =    -0.00002798   -0.00001164   -0.00002668
     atom   49 type  1   force =    -0.00002199   -0.00002590    0.00001377
     atom   50 type  1   force =    -0.00004630   -0.00002964   -0.00000034
     atom   51 type  1   force =     0.00001983    0.00003157   -0.00002073
     atom   52 type  1   force =    -0.00001632    0.00001714   -0.00005221
     atom   53 type  1   force =    -0.00001978    0.00001710   -0.00004383
     atom   54 type  1   force =     0.00000424   -0.00000833   -0.00000528
     atom   55 type  1   force =    -0.00000956   -0.00000538   -0.00000063
     atom   56 type  2   force =     0.00000125    0.00000136   -0.00000042

     Total force =     0.004367     Total SCF correction =     0.000291
     Energy error            =      3.8E-05 Ry
     Gradient error          =      9.5E-04 Ry/Bohr

     bfgs converged in  28 scf cycles and  27 bfgs steps
     (criteria: energy <  1.0E-04 Ry, force <  1.0E-03 Ry/Bohr)

     End of BFGS Geometry Optimization

     Final energy             =  -11591.9810243016 Ry

     File ./out/calc.bfgs deleted, as requested
Begin final coordinates

ATOMIC_POSITIONS (angstrom)
Pt              -2.4056807821       -2.6157718007       -4.3284470680
Pt               1.7650126107       -3.8450210709       -0.9418270474
Pt              -0.8291177533       -4.2099383496       -0.2673183504
Pt              -1.0780847818       -0.2398811258       -2.3274949356
Pt              -2.7125881559        1.8347571880       -2.9715589814
Pt              -0.4571543083        1.4921217094       -4.5191674704
Pt              -2.4937275847       -0.0506731986       -5.0269413767
Pt              -4.4386227273        0.1624335146        1.7098392379
Pt               0.6681875544       -0.8753270584        1.6339165788
Pt               1.0122364057        1.2991533338       -1.6092073756
Pt               2.5991319085        0.2635336964        0.1903905449
Pt               1.0445031296       -3.6766298709        1.6662146036
Pt              -3.6538711969       -0.8337982865       -2.7334362496
Pt              -2.4105709356       -2.6749632905        4.5854377076
Pt              -4.0092678685       -2.3650334069        2.4219376604
Pt               4.9098306452        0.5388432274       -0.9685790034
Pt               2.5811508875        3.8692381311        0.8746703143
Pt               4.2779608987       -0.6102779840       -3.3001723903
Pt              -1.8057763050        1.0751652173       -0.2087560030
Pt              -4.1872717026        2.7424366066        1.1307100396
Pt              -2.8348628070       -3.3665540300       -1.9010215365
Pt               0.6028512211        4.3378691776        2.5639844379
Pt              -0.0857319189       -1.2956503630       -4.5596079413
Pt               4.5442702812       -1.0029290378        1.3495459095
Pt               3.6988171240        1.9473686631       -2.8705499556
Pt               4.5478269502        3.2343894112       -0.7166739534
Pt              -0.4541465676        3.4067138616       -2.5744374784
Pt               0.4425903583        1.7180485089        0.9875514123
Pt              -1.7880583767       -0.0676160257        2.0856082133
Pt               3.8494200474        0.3154122758        3.5778168358
Pt               3.6011870534       -3.4816663403        0.9757920906
Pt              -4.1416297352       -1.6744962591       -0.2337899600
Pt              -1.3437242651       -0.1733401864        4.6366685140
Pt              -3.0267819851        1.8053860999        3.4792848360
Pt              -1.4488533941       -1.5786054764       -0.0272878453
Pt               2.1386695361       -2.1801941887       -3.3089612806
Pt              -4.3005890874        0.9304091487       -0.8674408119
Pt               1.9308215292        0.3829902951       -4.0938429398
Pt               4.3291528462        1.7749275514        1.4503972509
Pt              -3.4390661481       -4.1181148841        0.5484011206
Pt               2.6957938095       -2.0437042953        3.0475184570
Pt              -1.5234853313       -3.3638049254        2.1867813809
Pt               0.1695426948       -2.4468286411        3.9543617169
Pt               2.0907063840        3.7600374496       -1.7181291229
Pt               0.0288210231        4.1869561187       -0.0429197799
Pt              -2.4515941514        3.4962325270       -0.8289653191
Pt               1.2667737834        0.0049455881        4.1252769346
Pt              -1.8182083377        3.5270452079        1.8319299758
Pt               1.6649710903        3.0346491272       -4.2425361553
Pt              -0.3643736953        2.1237670465        3.6929213116
Pt              -0.2289161493       -3.2754055740       -2.7016980011
Pt               3.9295861917       -2.0493606406       -1.1579485276
Pt               1.0563163770       -1.3679053186       -1.0950133841
Pt               2.2315830618        2.3254498144        3.1059155343
Pt              -4.0104321601       -0.5486901374        4.3050674411
H               -2.9631576407       -1.6127138009       -5.7306810257
End final coordinates



     Writing all to output data dir ./out/calc.save/ :
     XML data file, charge density, pseudopotentials, collected wavefunctions
 
     init_run     :     21.53s CPU     23.05s WALL (       1 calls)
     electrons    : 223888.66s CPU 228377.93s WALL (      28 calls)
     update_pot   :     91.26s CPU    102.00s WALL (      27 calls)
     forces       :    271.07s CPU    291.68s WALL (      28 calls)

     Called by init_run:
     wfcinit      :     12.46s CPU     13.24s WALL (       1 calls)
     wfcinit:atom :      0.07s CPU      0.11s WALL (       2 calls)
     wfcinit:wfcr :     11.96s CPU     12.64s WALL (       2 calls)
     potinit      :      4.50s CPU      4.98s WALL (       1 calls)
     hinit0       :      1.18s CPU      1.23s WALL (       1 calls)

     Called by electrons:
     c_bands      : 215205.18s CPU 218920.78s WALL (     750 calls)
     sum_band     :   5346.51s CPU   5661.76s WALL (     750 calls)
     v_of_rho     :   2433.52s CPU   2716.20s WALL (     761 calls)
     v_h          :     36.06s CPU     39.15s WALL (     761 calls)
     v_xc         :   2485.44s CPU   2775.90s WALL (     789 calls)
     newd         :    840.66s CPU    959.12s WALL (     761 calls)
     mix_rho      :     99.40s CPU    105.62s WALL (     750 calls)

     Called by c_bands:
     init_us_2    :    220.82s CPU    223.22s WALL (    3058 calls)
     rcgdiagg     : 207999.17s CPU 211337.00s WALL (    1555 calls)
     wfcrot       :   7026.67s CPU   7399.69s WALL (    1467 calls)

     Called by sum_band:
     sum_band:wei :      1.18s CPU      1.19s WALL (     750 calls)
     sum_band:loo :   4001.83s CPU   4187.58s WALL (     750 calls)
     sum_band:buf :     40.44s CPU     40.90s WALL (    1500 calls)
     sum_band:ini :    108.56s CPU    109.68s WALL (    1500 calls)
     sum_band:cal :    596.74s CPU    600.05s WALL (    1500 calls)
     sum_band:bec :      3.35s CPU      3.37s WALL (    1500 calls)
     addusdens    :   1274.75s CPU   1387.75s WALL (     750 calls)
                                        0.00s GPU  (     750 calls)
     addusd:skk   :     32.33s CPU     56.86s WALL (    1500 calls)
                                        0.00s GPU  (    1500 calls)

     Called by *cgdiagg:
     h_psi        :  96093.14s CPU  98782.49s WALL ( 2027980 calls)
     s_psi        :  65643.73s CPU  66195.35s WALL ( 4054493 calls)

     Called by h_psi:
     h_psi:calbec :  35528.56s CPU  35818.83s WALL ( 2027980 calls)
     vloc_psi     :  26954.16s CPU  29078.66s WALL ( 2027980 calls)
     add_vuspsi   :  33503.07s CPU  33782.25s WALL ( 2027980 calls)
     hs_1psi      : 122830.91s CPU 125456.17s WALL ( 2026513 calls)
     s_1psi       :  67227.91s CPU  67785.89s WALL ( 2026513 calls)

     General routines
     calbec       :  70433.23s CPU  71016.58s WALL ( 4056217 calls)
     fft          :   1373.60s CPU   1599.18s WALL (   53556 calls)
     ffts         :     19.44s CPU     22.66s WALL (    2272 calls)
     fftw         :  16772.16s CPU  18906.22s WALL ( 5228300 calls)
     interpolate  :     59.35s CPU     67.89s WALL (    1522 calls)
 
     Parallel routines
 
     PWSCF        :   2d14h18m CPU   2d15h35m WALL

 
   This run was terminated on:  11:56:10  27Jul2025            

=------------------------------------------------------------------------------=
   JOB DONE.
=------------------------------------------------------------------------------=
