
     Program PWSCF v.7.3.1 starts on 24Jul2025 at 20:21:26 

     This program is part of the open-source Quantum ESPRESSO suite
     for quantum simulation of materials; please cite
         "P. Giannozzi et al., J. Phys.:Condens. Matter 21 395502 (2009);
         "P. Giannozzi et al., J. Phys.:Condens. Matter 29 465901 (2017);
         "P. Giannozzi et al., J. Chem. Phys. 152 154105 (2020);
          URL http://www.quantum-espresso.org", 
     in publications or presentations arising from this work. More details at
     http://www.quantum-espresso.org/quote

     Parallel version (MPI), running on    36 processors

     MPI processes distributed on     1 nodes
     115752 MiB available memory on the printing compute node when the environment starts
 
     Reading input from espresso.pwi
Warning: card &CELL ignored
Warning: card  CELL_DOFREE = 'IBRAV', ignored
Warning: card / ignored

     Current dimensions of program PWSCF are:
     Max number of different atomic species (ntypx) = 10
     Max number of k-points (npk) =  40000
     Max angular momentum in pseudopotentials (lmaxx) =  4
     Message from routine iosys:
     restart disabled: needed files not found

     IMPORTANT: XC functional enforced from input :
     Exchange-correlation= RVV10
                           (   1   4  13   4  26   0   0)
     Any further DFT definition will be discarded
     Please, verify this is what you really want


     Atomic positions and unit cell read from directory:
     ./out/calc.save/
     Message from routine qexsd_readschema :
     xml data file ./out/calc.save/data-file-schema.xml not found
     Nothing found: using input atomic positions and unit cell


     gamma-point specific algorithms are used
 
     R & G space division:  proc/nbgrp/npool/nimage =      36
     Subspace diagonalization in iterative solution of the eigenvalue problem:
     one sub-group per band group will be used
     scalapack distributed-memory algorithm (size of sub-group:  5*  5 procs)

 
     Parallelization info
     --------------------
     sticks:   dense  smooth     PW     G-vecs:    dense   smooth      PW
     Min        1514     756    187               266321    94136   11763
     Max        1516     758    190               266336    94150   11778
     Sum       54553   27281   6817              9587919  3389267  423701
 
     Using Slab Decomposition
 

     Title: 
     Pt55 DRC DFT-PBE                                                           


     bravais-lattice index     =            0
     lattice parameter (alat)  =      37.7945  a.u.
     unit-cell volume          =   53986.6760 (a.u.)^3
     number of atoms/cell      =           56
     number of atomic types    =            2
     number of electrons       =       881.00
     number of Kohn-Sham states=          529
     kinetic-energy cutoff     =      60.0000  Ry
     charge density cutoff     =     480.0000  Ry
     scf convergence threshold =      1.0E-06
     mixing beta               =       0.2000
     number of iterations used =            8  plain     mixing
     energy convergence thresh.=      1.0E-04
     force convergence thresh. =      1.0E-03
     Exchange-correlation= RVV10
                           (   1   4  13   4  26   0   0)
     nstep                     =        10000


     celldm(1)=  37.794522  celldm(2)=   0.000000  celldm(3)=   0.000000
     celldm(4)=   0.000000  celldm(5)=   0.000000  celldm(6)=   0.000000

     crystal axes: (cart. coord. in units of alat)
               a(1) = (   1.000000   0.000000   0.000000 )  
               a(2) = (   0.000000   1.000000   0.000000 )  
               a(3) = (   0.000000   0.000000   1.000000 )  

     reciprocal axes: (cart. coord. in units 2 pi/alat)
               b(1) = (  1.000000  0.000000  0.000000 )  
               b(2) = (  0.000000  1.000000  0.000000 )  
               b(3) = (  0.000000  0.000000  1.000000 )  


     PseudoPot. # 1 for Pt read from file:
     /home/james/work/espresso/SSSP_1.3.0_PBE_efficiency/pt_pbe_v1.4.uspp.F.UPF
     MD5 check sum: f09d6de1a584b5a045c4fc126da2d0c4
     Pseudo is Ultrasoft + core correction, Zval = 16.0
     Generated by new atomic code, or converted to UPF format
     Using radial grid of  985 points,  6 beta functions with: 
                l(1) =   0
                l(2) =   0
                l(3) =   1
                l(4) =   1
                l(5) =   2
                l(6) =   2
     Q(r) pseudized with  8 coefficients,  rinner =    1.300   1.300   1.300
                                                       1.300   1.300

     PseudoPot. # 2 for H  read from file:
     /home/james/work/espresso/SSSP_1.3.0_PBE_efficiency/H.pbe-rrkjus_psl.1.0.0.UPF
     MD5 check sum: f52b6d4d1c606e5624b1dc7b2218f220
     Pseudo is Ultrasoft, Zval =  1.0
     Generated using "atomic" code by A. Dal Corso  v.5.1
     Using radial grid of  929 points,  2 beta functions with: 
                l(1) =   0
                l(2) =   0
     Q(r) pseudized with 0 coefficients 


     atomic species   valence    mass     pseudopotential
     Pt               16.00   195.08400     Pt( 1.00)
     H                 1.00     1.00800     H ( 1.00)

     Starting magnetic structure 
     atomic species   magnetization
     Pt              0.010
     H               0.000

     No symmetry found


                                    s                        frac. trans.

      isym =  1     identity                                     

 cryst.   s( 1) = (     1          0          0      )
                  (     0          1          0      )
                  (     0          0          1      )

 cart.    s( 1) = (  1.0000000  0.0000000  0.0000000 )
                  (  0.0000000  1.0000000  0.0000000 )
                  (  0.0000000  0.0000000  1.0000000 )


   Cartesian axes

     site n.     atom                  positions (alat units)
         1        Pt     tau(   1) = (  -0.1184692  -0.1289811  -0.2146595  )
         2        Pt     tau(   2) = (   0.0879732  -0.1905563  -0.0473935  )
         3        Pt     tau(   3) = (  -0.0407954  -0.2088642  -0.0136076  )
         4        Pt     tau(   4) = (  -0.0534911  -0.0140564  -0.1170277  )
         5        Pt     tau(   5) = (  -0.1338863   0.0930485  -0.1450428  )
         6        Pt     tau(   6) = (  -0.0216487   0.0742489  -0.2224670  )
         7        Pt     tau(   7) = (  -0.1228422  -0.0003186  -0.2473079  )
         8        Pt     tau(   8) = (  -0.2193709   0.0091502   0.0852671  )
         9        Pt     tau(   9) = (   0.0332487  -0.0443171   0.0797488  )
        10        Pt     tau(  10) = (   0.0490643   0.0649223  -0.0801249  )
        11        Pt     tau(  11) = (   0.1286964   0.0142868   0.0087880  )
        12        Pt     tau(  12) = (   0.0516947  -0.1831859   0.0823583  )
        13        Pt     tau(  13) = (  -0.1824139  -0.0401985  -0.1364734  )
        14        Pt     tau(  14) = (  -0.1203394  -0.1322049   0.2271575  )
        15        Pt     tau(  15) = (  -0.1987900  -0.1171753   0.1194564  )
        16        Pt     tau(  16) = (   0.2439832   0.0269829  -0.0478417  )
        17        Pt     tau(  17) = (   0.1291423   0.1929666   0.0441357  )
        18        Pt     tau(  18) = (   0.2135598  -0.0299727  -0.1637702  )
        19        Pt     tau(  19) = (  -0.0893648   0.0523185  -0.0126911  )
        20        Pt     tau(  20) = (  -0.2080250   0.1375869   0.0577217  )
        21        Pt     tau(  21) = (  -0.1409462  -0.1648513  -0.0948211  )
        22        Pt     tau(  22) = (   0.0306188   0.2158309   0.1283915  )
        23        Pt     tau(  23) = (  -0.0038981  -0.0644102  -0.2279053  )
        24        Pt     tau(  24) = (   0.2243978  -0.0502054   0.0665406  )
        25        Pt     tau(  25) = (   0.1820945   0.0964271  -0.1408716  )
        26        Pt     tau(  26) = (   0.2264479   0.1612750  -0.0350756  )
        27        Pt     tau(  27) = (  -0.0229513   0.1709344  -0.1259021  )
        28        Pt     tau(  28) = (   0.0207124   0.0847292   0.0494645  )
        29        Pt     tau(  29) = (  -0.0882590  -0.0022267   0.1018400  )
        30        Pt     tau(  30) = (   0.1907775   0.0152478   0.1772775  )
        31        Pt     tau(  31) = (   0.1789948  -0.1737259   0.0478570  )
        32        Pt     tau(  32) = (  -0.2068087  -0.0814042  -0.0116031  )
        33        Pt     tau(  33) = (  -0.0671348  -0.0085571   0.2287301  )
        34        Pt     tau(  34) = (  -0.1498055   0.0904163   0.1729490  )
        35        Pt     tau(  35) = (  -0.0719561  -0.0785236  -0.0018603  )
        36        Pt     tau(  36) = (   0.1074455  -0.1080978  -0.1653069  )
        37        Pt     tau(  37) = (  -0.2143159   0.0476112  -0.0425252  )
        38        Pt     tau(  38) = (   0.0970606   0.0186090  -0.2042751  )
        39        Pt     tau(  39) = (   0.2152744   0.0880652   0.0720890  )
        40        Pt     tau(  40) = (  -0.1702640  -0.2033339   0.0251930  )
        41        Pt     tau(  41) = (   0.1333264  -0.1021657   0.1506856  )
        42        Pt     tau(  42) = (  -0.0758684  -0.1667120   0.1080652  )
        43        Pt     tau(  43) = (   0.0079707  -0.1220948   0.1959394  )
        44        Pt     tau(  44) = (   0.1035756   0.1872857  -0.0840180  )
        45        Pt     tau(  45) = (   0.0017203   0.2074397  -0.0000028  )
        46        Pt     tau(  46) = (  -0.1214752   0.1735622  -0.0383396  )
        47        Pt     tau(  47) = (   0.0626453  -0.0003444   0.2036670  )
        48        Pt     tau(  48) = (  -0.0911473   0.1789724   0.0937393  )
        49        Pt     tau(  49) = (   0.0820102   0.1511787  -0.2092932  )
        50        Pt     tau(  50) = (  -0.0177604   0.1051450   0.1826634  )
        51        Pt     tau(  51) = (  -0.0105208  -0.1612931  -0.1336594  )
        52        Pt     tau(  52) = (   0.1953231  -0.1018990  -0.0580435  )
        53        Pt     tau(  53) = (   0.0533890  -0.0672335  -0.0550032  )
        54        Pt     tau(  54) = (   0.1107939   0.1151121   0.1533706  )
        55        Pt     tau(  55) = (  -0.1993928  -0.0264440   0.2138168  )
        56        H      tau(  56) = (  -0.0800429  -0.0804976  -0.2929531  )

   Crystallographic axes

     site n.     atom                  positions (cryst. coord.)
         1        Pt     tau(   1) = ( -0.1184692 -0.1289811 -0.2146595  )
         2        Pt     tau(   2) = (  0.0879732 -0.1905563 -0.0473935  )
         3        Pt     tau(   3) = ( -0.0407954 -0.2088642 -0.0136076  )
         4        Pt     tau(   4) = ( -0.0534911 -0.0140564 -0.1170277  )
         5        Pt     tau(   5) = ( -0.1338863  0.0930485 -0.1450428  )
         6        Pt     tau(   6) = ( -0.0216487  0.0742489 -0.2224670  )
         7        Pt     tau(   7) = ( -0.1228422 -0.0003186 -0.2473079  )
         8        Pt     tau(   8) = ( -0.2193709  0.0091502  0.0852671  )
         9        Pt     tau(   9) = (  0.0332487 -0.0443171  0.0797488  )
        10        Pt     tau(  10) = (  0.0490643  0.0649223 -0.0801249  )
        11        Pt     tau(  11) = (  0.1286964  0.0142868  0.0087880  )
        12        Pt     tau(  12) = (  0.0516947 -0.1831859  0.0823583  )
        13        Pt     tau(  13) = ( -0.1824139 -0.0401985 -0.1364734  )
        14        Pt     tau(  14) = ( -0.1203394 -0.1322049  0.2271575  )
        15        Pt     tau(  15) = ( -0.1987900 -0.1171753  0.1194564  )
        16        Pt     tau(  16) = (  0.2439832  0.0269829 -0.0478417  )
        17        Pt     tau(  17) = (  0.1291423  0.1929666  0.0441357  )
        18        Pt     tau(  18) = (  0.2135598 -0.0299727 -0.1637702  )
        19        Pt     tau(  19) = ( -0.0893648  0.0523185 -0.0126911  )
        20        Pt     tau(  20) = ( -0.2080250  0.1375869  0.0577217  )
        21        Pt     tau(  21) = ( -0.1409462 -0.1648513 -0.0948211  )
        22        Pt     tau(  22) = (  0.0306188  0.2158309  0.1283915  )
        23        Pt     tau(  23) = ( -0.0038981 -0.0644102 -0.2279053  )
        24        Pt     tau(  24) = (  0.2243978 -0.0502054  0.0665406  )
        25        Pt     tau(  25) = (  0.1820945  0.0964271 -0.1408716  )
        26        Pt     tau(  26) = (  0.2264479  0.1612750 -0.0350756  )
        27        Pt     tau(  27) = ( -0.0229513  0.1709344 -0.1259021  )
        28        Pt     tau(  28) = (  0.0207124  0.0847292  0.0494645  )
        29        Pt     tau(  29) = ( -0.0882590 -0.0022267  0.1018400  )
        30        Pt     tau(  30) = (  0.1907775  0.0152478  0.1772775  )
        31        Pt     tau(  31) = (  0.1789948 -0.1737259  0.0478570  )
        32        Pt     tau(  32) = ( -0.2068087 -0.0814042 -0.0116031  )
        33        Pt     tau(  33) = ( -0.0671348 -0.0085571  0.2287301  )
        34        Pt     tau(  34) = ( -0.1498055  0.0904163  0.1729490  )
        35        Pt     tau(  35) = ( -0.0719561 -0.0785236 -0.0018603  )
        36        Pt     tau(  36) = (  0.1074455 -0.1080978 -0.1653069  )
        37        Pt     tau(  37) = ( -0.2143159  0.0476112 -0.0425252  )
        38        Pt     tau(  38) = (  0.0970606  0.0186090 -0.2042751  )
        39        Pt     tau(  39) = (  0.2152744  0.0880652  0.0720890  )
        40        Pt     tau(  40) = ( -0.1702640 -0.2033339  0.0251930  )
        41        Pt     tau(  41) = (  0.1333264 -0.1021657  0.1506856  )
        42        Pt     tau(  42) = ( -0.0758684 -0.1667120  0.1080652  )
        43        Pt     tau(  43) = (  0.0079707 -0.1220948  0.1959394  )
        44        Pt     tau(  44) = (  0.1035756  0.1872857 -0.0840180  )
        45        Pt     tau(  45) = (  0.0017203  0.2074397 -0.0000028  )
        46        Pt     tau(  46) = ( -0.1214752  0.1735622 -0.0383396  )
        47        Pt     tau(  47) = (  0.0626453 -0.0003444  0.2036670  )
        48        Pt     tau(  48) = ( -0.0911473  0.1789724  0.0937393  )
        49        Pt     tau(  49) = (  0.0820102  0.1511787 -0.2092932  )
        50        Pt     tau(  50) = ( -0.0177604  0.1051450  0.1826634  )
        51        Pt     tau(  51) = ( -0.0105208 -0.1612931 -0.1336594  )
        52        Pt     tau(  52) = (  0.1953231 -0.1018990 -0.0580435  )
        53        Pt     tau(  53) = (  0.0533890 -0.0672335 -0.0550032  )
        54        Pt     tau(  54) = (  0.1107939  0.1151121  0.1533706  )
        55        Pt     tau(  55) = ( -0.1993928 -0.0264440  0.2138168  )
        56        H      tau(  56) = ( -0.0800429 -0.0804976 -0.2929531  )

     number of k points=     1  Gaussian smearing, width (Ry)=  0.0100
                       cart. coord. in units 2pi/alat
        k(    1) = (   0.0000000   0.0000000   0.0000000), wk =   1.0000000

                       cryst. coord.
        k(    1) = (   0.0000000   0.0000000   0.0000000), wk =   1.0000000

     Dense  grid:  4793960 G-vectors     FFT dimensions: ( 270, 270, 270)

     Smooth grid:  1694634 G-vectors     FFT dimensions: ( 192, 192, 192)

     Dynamical RAM for                 wfc:      47.50 MB

     Dynamical RAM for     wfc (w. buffer):     142.49 MB

     Dynamical RAM for           str. fact:       4.06 MB

     Dynamical RAM for           local pot:       0.00 MB

     Dynamical RAM for          nlocal pot:      89.06 MB

     Dynamical RAM for                qrad:       3.52 MB

     Dynamical RAM for          rho,v,vnew:      38.89 MB

     Dynamical RAM for               rhoin:      12.96 MB

     Dynamical RAM for            rho*nmix:      65.02 MB

     Dynamical RAM for           G-vectors:       7.98 MB

     Dynamical RAM for          h,s,v(r/c):       0.25 MB

     Dynamical RAM for          <psi|beta>:       4.00 MB

     Dynamical RAM for      wfcinit/wfcrot:     101.40 MB

     Dynamical RAM for           addusdens:     491.72 MB

     Dynamical RAM for          addusforce:     711.60 MB

     Estimated static dynamical RAM per process >     331.75 MB

     Estimated max dynamical RAM per process >       1.08 GB

     Estimated total dynamical RAM >      38.97 GB
     Generating pointlists ...
     new r_m :   0.0412 (alat units)  1.5557 (a.u.) for type    1
     new r_m :   0.0412 (alat units)  1.5557 (a.u.) for type    2
     Cannot read rho : file not found

     Initial potential from superposition of free atoms

     starting charge     853.4994, renormalised to     881.0000

     negative rho (up, down):  5.280E+00 5.175E+00


---------------------------------------------------------------------------------
Carrying out rVV10 run using the following parameters:
Nqs =      20    Nr_points =    1024   r_max =   100.000
b_value =  6.30000    beta =  0.00901
     q_mesh =  0.00010000  0.00030000  0.00058939  0.00100810
               0.00161396  0.00249058  0.00375900  0.00559430
               0.00824984  0.01209221  0.01765183  0.02569619
               0.03733578  0.05417739  0.07854596  0.11380545
               0.16482331  0.23864234  0.34545298  0.50000000

Gradients computed in Reciprocal space

---------------------------------------------------------------------------------




     ----------------------------------------------------------------

     Non-local correlation energy =              9.711129094671723

     ----------------------------------------------------------------

     Message from routine qexsd_readschema :
     xml data file ./out/calc.save/data-file-schema.xml not found
     Cannot read wfcs: file not found
     Starting wfcs are  661 randomized atomic wfcs

     total cpu time spent up to now is       23.3 secs

     Self-consistent Calculation

     iteration #  1     ecut=    60.00 Ry     beta= 0.20
     CG style diagonalization

---- Real-time Memory Report at c_bands before calling an iterative solver
             0 MiB given to the printing process from OS
             0 MiB allocation reported by mallinfo(arena+hblkhd)
        101131 MiB available memory on the node where the printing process lives
------------------
     c_bands:  2 eigenvalues not converged
     ethr =  1.00E-05,  avg # of iterations = 27.1

     negative rho (up, down):  5.082E+00 4.993E+00


     ----------------------------------------------------------------

     Non-local correlation energy =              9.334238158287619

     ----------------------------------------------------------------


     total cpu time spent up to now is     2772.9 secs

     total energy              =  -11536.62324864 Ry
     estimated scf accuracy    <     243.68896541 Ry

     total magnetization       =     4.11 Bohr mag/cell
     absolute magnetization    =     4.39 Bohr mag/cell

     iteration #  2     ecut=    60.00 Ry     beta= 0.20
     CG style diagonalization

---- Real-time Memory Report at c_bands before calling an iterative solver
             0 MiB given to the printing process from OS
             0 MiB allocation reported by mallinfo(arena+hblkhd)
         99192 MiB available memory on the node where the printing process lives
------------------
     ethr =  1.00E-02,  avg # of iterations =  4.8

     negative rho (up, down):  5.046E+00 4.963E+00


     ----------------------------------------------------------------

     Non-local correlation energy =              9.289420071630483

     ----------------------------------------------------------------


     total cpu time spent up to now is     3223.0 secs

     total energy              =  -11565.68443165 Ry
     estimated scf accuracy    <     334.27352701 Ry

     total magnetization       =     1.26 Bohr mag/cell
     absolute magnetization    =     4.82 Bohr mag/cell

     iteration #  3     ecut=    60.00 Ry     beta= 0.20
     CG style diagonalization

---- Real-time Memory Report at c_bands before calling an iterative solver
             0 MiB given to the printing process from OS
             0 MiB allocation reported by mallinfo(arena+hblkhd)
         99036 MiB available memory on the node where the printing process lives
------------------
     ethr =  1.00E-02,  avg # of iterations =  3.7

     negative rho (up, down):  5.001E+00 4.928E+00


     ----------------------------------------------------------------

     Non-local correlation energy =              9.256987742483997

     ----------------------------------------------------------------


     total cpu time spent up to now is     3552.1 secs

     total energy              =  -11586.93648926 Ry
     estimated scf accuracy    <      34.11716433 Ry

     total magnetization       =    -0.64 Bohr mag/cell
     absolute magnetization    =     5.54 Bohr mag/cell

     iteration #  4     ecut=    60.00 Ry     beta= 0.20
     CG style diagonalization

---- Real-time Memory Report at c_bands before calling an iterative solver
             0 MiB given to the printing process from OS
             0 MiB allocation reported by mallinfo(arena+hblkhd)
         98859 MiB available memory on the node where the printing process lives
------------------
     ethr =  3.87E-03,  avg # of iterations =  3.4

     negative rho (up, down):  4.986E+00 4.917E+00


     ----------------------------------------------------------------

     Non-local correlation energy =              9.246929867561443

     ----------------------------------------------------------------


     total cpu time spent up to now is     3843.4 secs

     total energy              =  -11587.39228362 Ry
     estimated scf accuracy    <     133.57831496 Ry

     total magnetization       =     0.96 Bohr mag/cell
     absolute magnetization    =     3.21 Bohr mag/cell

     iteration #  5     ecut=    60.00 Ry     beta= 0.20
     CG style diagonalization

---- Real-time Memory Report at c_bands before calling an iterative solver
             0 MiB given to the printing process from OS
             0 MiB allocation reported by mallinfo(arena+hblkhd)
         98700 MiB available memory on the node where the printing process lives
------------------
     ethr =  3.87E-03,  avg # of iterations =  3.0

     negative rho (up, down):  4.975E+00 4.908E+00


     ----------------------------------------------------------------

     Non-local correlation energy =              9.240739509423136

     ----------------------------------------------------------------


     total cpu time spent up to now is     4089.9 secs

     total energy              =  -11590.41733410 Ry
     estimated scf accuracy    <      63.41879736 Ry

     total magnetization       =     2.14 Bohr mag/cell
     absolute magnetization    =     2.57 Bohr mag/cell

     iteration #  6     ecut=    60.00 Ry     beta= 0.20
     CG style diagonalization

---- Real-time Memory Report at c_bands before calling an iterative solver
             0 MiB given to the printing process from OS
             0 MiB allocation reported by mallinfo(arena+hblkhd)
         98575 MiB available memory on the node where the printing process lives
------------------
     ethr =  3.87E-03,  avg # of iterations =  3.0

     negative rho (up, down):  4.965E+00 4.901E+00


     ----------------------------------------------------------------

     Non-local correlation energy =              9.236216819888472

     ----------------------------------------------------------------


     total cpu time spent up to now is     4336.0 secs

     total energy              =  -11591.18753284 Ry
     estimated scf accuracy    <      28.07474047 Ry

     total magnetization       =     2.39 Bohr mag/cell
     absolute magnetization    =     2.66 Bohr mag/cell

     iteration #  7     ecut=    60.00 Ry     beta= 0.20
     CG style diagonalization

---- Real-time Memory Report at c_bands before calling an iterative solver
             0 MiB given to the printing process from OS
             0 MiB allocation reported by mallinfo(arena+hblkhd)
         98408 MiB available memory on the node where the printing process lives
------------------
     ethr =  3.19E-03,  avg # of iterations =  3.0

     negative rho (up, down):  4.945E+00 4.886E+00


     ----------------------------------------------------------------

     Non-local correlation energy =              9.229179337579017

     ----------------------------------------------------------------


     total cpu time spent up to now is     4582.8 secs

     total energy              =  -11591.48599712 Ry
     estimated scf accuracy    <      18.72596994 Ry

     total magnetization       =     1.67 Bohr mag/cell
     absolute magnetization    =     1.99 Bohr mag/cell

     iteration #  8     ecut=    60.00 Ry     beta= 0.20
     CG style diagonalization

---- Real-time Memory Report at c_bands before calling an iterative solver
             0 MiB given to the printing process from OS
             0 MiB allocation reported by mallinfo(arena+hblkhd)
         98244 MiB available memory on the node where the printing process lives
------------------
     ethr =  2.13E-03,  avg # of iterations =  3.0

     negative rho (up, down):  4.926E+00 4.873E+00


     ----------------------------------------------------------------

     Non-local correlation energy =              9.223525993287595

     ----------------------------------------------------------------


     total cpu time spent up to now is     4829.1 secs

     total energy              =  -11591.50274652 Ry
     estimated scf accuracy    <      15.94161686 Ry

     total magnetization       =     1.78 Bohr mag/cell
     absolute magnetization    =     2.06 Bohr mag/cell

     iteration #  9     ecut=    60.00 Ry     beta= 0.20
     CG style diagonalization

---- Real-time Memory Report at c_bands before calling an iterative solver
             0 MiB given to the printing process from OS
             0 MiB allocation reported by mallinfo(arena+hblkhd)
         98125 MiB available memory on the node where the printing process lives
------------------
     ethr =  1.81E-03,  avg # of iterations =  3.0

     negative rho (up, down):  4.912E+00 4.863E+00


     ----------------------------------------------------------------

     Non-local correlation energy =              9.220450494430628

     ----------------------------------------------------------------


     total cpu time spent up to now is     5075.5 secs

     total energy              =  -11591.75362445 Ry
     estimated scf accuracy    <       7.39346574 Ry

     total magnetization       =     1.83 Bohr mag/cell
     absolute magnetization    =     2.08 Bohr mag/cell

     iteration # 10     ecut=    60.00 Ry     beta= 0.20
     CG style diagonalization

---- Real-time Memory Report at c_bands before calling an iterative solver
             0 MiB given to the printing process from OS
             0 MiB allocation reported by mallinfo(arena+hblkhd)
         97959 MiB available memory on the node where the printing process lives
------------------
     ethr =  8.39E-04,  avg # of iterations =  3.0

     negative rho (up, down):  4.901E+00 4.856E+00


     ----------------------------------------------------------------

     Non-local correlation energy =              9.218359275100035

     ----------------------------------------------------------------


     total cpu time spent up to now is     5324.6 secs

     total energy              =  -11591.82744764 Ry
     estimated scf accuracy    <       7.97772197 Ry

     total magnetization       =     1.63 Bohr mag/cell
     absolute magnetization    =     1.89 Bohr mag/cell

     iteration # 11     ecut=    60.00 Ry     beta= 0.20
     CG style diagonalization

---- Real-time Memory Report at c_bands before calling an iterative solver
             0 MiB given to the printing process from OS
             0 MiB allocation reported by mallinfo(arena+hblkhd)
         97960 MiB available memory on the node where the printing process lives
------------------
     ethr =  8.39E-04,  avg # of iterations =  3.0

     negative rho (up, down):  4.888E+00 4.848E+00


     ----------------------------------------------------------------

     Non-local correlation energy =              9.217733561871631

     ----------------------------------------------------------------


     total cpu time spent up to now is     5571.3 secs

     total energy              =  -11591.93179897 Ry
     estimated scf accuracy    <       1.72071843 Ry

     total magnetization       =     1.39 Bohr mag/cell
     absolute magnetization    =     1.65 Bohr mag/cell

     iteration # 12     ecut=    60.00 Ry     beta= 0.20
     CG style diagonalization

---- Real-time Memory Report at c_bands before calling an iterative solver
             0 MiB given to the printing process from OS
             0 MiB allocation reported by mallinfo(arena+hblkhd)
         97955 MiB available memory on the node where the printing process lives
------------------
     ethr =  1.95E-04,  avg # of iterations =  3.2

     negative rho (up, down):  4.875E+00 4.840E+00


     ----------------------------------------------------------------

     Non-local correlation energy =              9.217223624192982

     ----------------------------------------------------------------


     total cpu time spent up to now is     5842.5 secs

     total energy              =  -11591.92103262 Ry
     estimated scf accuracy    <       1.03020816 Ry

     total magnetization       =     1.25 Bohr mag/cell
     absolute magnetization    =     1.51 Bohr mag/cell

     iteration # 13     ecut=    60.00 Ry     beta= 0.20
     CG style diagonalization

---- Real-time Memory Report at c_bands before calling an iterative solver
             0 MiB given to the printing process from OS
             0 MiB allocation reported by mallinfo(arena+hblkhd)
         97946 MiB available memory on the node where the printing process lives
------------------
     ethr =  1.17E-04,  avg # of iterations =  3.0

     negative rho (up, down):  4.864E+00 4.833E+00


     ----------------------------------------------------------------

     Non-local correlation energy =              9.216526069159130

     ----------------------------------------------------------------


     total cpu time spent up to now is     6088.7 secs

     total energy              =  -11591.92622152 Ry
     estimated scf accuracy    <       0.71419586 Ry

     total magnetization       =     1.23 Bohr mag/cell
     absolute magnetization    =     1.47 Bohr mag/cell

     iteration # 14     ecut=    60.00 Ry     beta= 0.20
     CG style diagonalization

---- Real-time Memory Report at c_bands before calling an iterative solver
             0 MiB given to the printing process from OS
             0 MiB allocation reported by mallinfo(arena+hblkhd)
         97955 MiB available memory on the node where the printing process lives
------------------
     c_bands:  1 eigenvalues not converged
     ethr =  8.11E-05,  avg # of iterations =  3.1

     negative rho (up, down):  4.852E+00 4.826E+00


     ----------------------------------------------------------------

     Non-local correlation energy =              9.215890988441860

     ----------------------------------------------------------------


     total cpu time spent up to now is     6342.4 secs

     total energy              =  -11591.92918758 Ry
     estimated scf accuracy    <       0.23851863 Ry

     total magnetization       =     1.12 Bohr mag/cell
     absolute magnetization    =     1.35 Bohr mag/cell

     iteration # 15     ecut=    60.00 Ry     beta= 0.20
     CG style diagonalization

---- Real-time Memory Report at c_bands before calling an iterative solver
             0 MiB given to the printing process from OS
             0 MiB allocation reported by mallinfo(arena+hblkhd)
         97942 MiB available memory on the node where the printing process lives
------------------
     ethr =  2.71E-05,  avg # of iterations =  3.3

     negative rho (up, down):  4.848E+00 4.825E+00


     ----------------------------------------------------------------

     Non-local correlation energy =              9.216260800231364

     ----------------------------------------------------------------


     total cpu time spent up to now is     6619.2 secs

     total energy              =  -11591.90990014 Ry
     estimated scf accuracy    <       0.91854532 Ry

     total magnetization       =     1.02 Bohr mag/cell
     absolute magnetization    =     1.23 Bohr mag/cell

     iteration # 16     ecut=    60.00 Ry     beta= 0.20
     CG style diagonalization

---- Real-time Memory Report at c_bands before calling an iterative solver
             0 MiB given to the printing process from OS
             0 MiB allocation reported by mallinfo(arena+hblkhd)
         97936 MiB available memory on the node where the printing process lives
------------------
     ethr =  2.71E-05,  avg # of iterations =  3.0

     negative rho (up, down):  4.841E+00 4.822E+00


     ----------------------------------------------------------------

     Non-local correlation energy =              9.214640676346576

     ----------------------------------------------------------------


     total cpu time spent up to now is     6865.4 secs

     total energy              =  -11591.92542668 Ry
     estimated scf accuracy    <       0.32757144 Ry

     total magnetization       =     0.96 Bohr mag/cell
     absolute magnetization    =     1.15 Bohr mag/cell

     iteration # 17     ecut=    60.00 Ry     beta= 0.20
     CG style diagonalization

---- Real-time Memory Report at c_bands before calling an iterative solver
             0 MiB given to the printing process from OS
             0 MiB allocation reported by mallinfo(arena+hblkhd)
         97910 MiB available memory on the node where the printing process lives
------------------
     ethr =  2.71E-05,  avg # of iterations =  3.0

     negative rho (up, down):  4.838E+00 4.820E+00


     ----------------------------------------------------------------

     Non-local correlation energy =              9.213720174821908

     ----------------------------------------------------------------


     total cpu time spent up to now is     7111.7 secs

     total energy              =  -11591.92937239 Ry
     estimated scf accuracy    <       0.13169094 Ry

     total magnetization       =     0.90 Bohr mag/cell
     absolute magnetization    =     1.07 Bohr mag/cell

     iteration # 18     ecut=    60.00 Ry     beta= 0.20
     CG style diagonalization

---- Real-time Memory Report at c_bands before calling an iterative solver
             0 MiB given to the printing process from OS
             0 MiB allocation reported by mallinfo(arena+hblkhd)
         97915 MiB available memory on the node where the printing process lives
------------------
     c_bands:  2 eigenvalues not converged
     c_bands:  1 eigenvalues not converged
     ethr =  1.49E-05,  avg # of iterations =  3.2

     negative rho (up, down):  4.835E+00 4.820E+00


     ----------------------------------------------------------------

     Non-local correlation energy =              9.212983082325531

     ----------------------------------------------------------------


     total cpu time spent up to now is     7381.0 secs

     total energy              =  -11591.92872415 Ry
     estimated scf accuracy    <       0.21179417 Ry

     total magnetization       =     0.82 Bohr mag/cell
     absolute magnetization    =     0.99 Bohr mag/cell

     iteration # 19     ecut=    60.00 Ry     beta= 0.20
     CG style diagonalization

---- Real-time Memory Report at c_bands before calling an iterative solver
             0 MiB given to the printing process from OS
             0 MiB allocation reported by mallinfo(arena+hblkhd)
         97895 MiB available memory on the node where the printing process lives
------------------
     ethr =  1.49E-05,  avg # of iterations =  3.0

     negative rho (up, down):  4.835E+00 4.820E+00


     ----------------------------------------------------------------

     Non-local correlation energy =              9.213083811598089

     ----------------------------------------------------------------


     total cpu time spent up to now is     7628.8 secs

     total energy              =  -11591.93240151 Ry
     estimated scf accuracy    <       0.03441148 Ry

     total magnetization       =     0.78 Bohr mag/cell
     absolute magnetization    =     0.93 Bohr mag/cell

     iteration # 20     ecut=    60.00 Ry     beta= 0.20
     CG style diagonalization

---- Real-time Memory Report at c_bands before calling an iterative solver
             0 MiB given to the printing process from OS
             0 MiB allocation reported by mallinfo(arena+hblkhd)
         97922 MiB available memory on the node where the printing process lives
------------------
     ethr =  3.91E-06,  avg # of iterations =  3.2

     negative rho (up, down):  4.832E+00 4.820E+00


     ----------------------------------------------------------------

     Non-local correlation energy =              9.212147018026281

     ----------------------------------------------------------------


     total cpu time spent up to now is     7903.5 secs

     total energy              =  -11591.92970599 Ry
     estimated scf accuracy    <       0.12982093 Ry

     total magnetization       =     0.76 Bohr mag/cell
     absolute magnetization    =     0.91 Bohr mag/cell

     iteration # 21     ecut=    60.00 Ry     beta= 0.20
     CG style diagonalization

---- Real-time Memory Report at c_bands before calling an iterative solver
             0 MiB given to the printing process from OS
             0 MiB allocation reported by mallinfo(arena+hblkhd)
         97914 MiB available memory on the node where the printing process lives
------------------
     ethr =  3.91E-06,  avg # of iterations =  3.2

     negative rho (up, down):  4.832E+00 4.820E+00


     ----------------------------------------------------------------

     Non-local correlation energy =              9.211836065138339

     ----------------------------------------------------------------


     total cpu time spent up to now is     8177.0 secs

     total energy              =  -11591.93199154 Ry
     estimated scf accuracy    <       0.02844339 Ry

     total magnetization       =     0.70 Bohr mag/cell
     absolute magnetization    =     0.84 Bohr mag/cell

     iteration # 22     ecut=    60.00 Ry     beta= 0.20
     CG style diagonalization

---- Real-time Memory Report at c_bands before calling an iterative solver
             0 MiB given to the printing process from OS
             0 MiB allocation reported by mallinfo(arena+hblkhd)
         97916 MiB available memory on the node where the printing process lives
------------------
     ethr =  3.23E-06,  avg # of iterations =  3.0

     negative rho (up, down):  4.831E+00 4.820E+00


     ----------------------------------------------------------------

     Non-local correlation energy =              9.211390176187638

     ----------------------------------------------------------------


     total cpu time spent up to now is     8424.6 secs

     total energy              =  -11591.93226361 Ry
     estimated scf accuracy    <       0.00544091 Ry

     total magnetization       =     0.68 Bohr mag/cell
     absolute magnetization    =     0.81 Bohr mag/cell

     iteration # 23     ecut=    60.00 Ry     beta= 0.20
     CG style diagonalization

---- Real-time Memory Report at c_bands before calling an iterative solver
             0 MiB given to the printing process from OS
             0 MiB allocation reported by mallinfo(arena+hblkhd)
         97918 MiB available memory on the node where the printing process lives
------------------
     ethr =  6.18E-07,  avg # of iterations =  3.3

     negative rho (up, down):  4.830E+00 4.821E+00


     ----------------------------------------------------------------

     Non-local correlation energy =              9.210891397577386

     ----------------------------------------------------------------


     total cpu time spent up to now is     8709.4 secs

     total energy              =  -11591.93212018 Ry
     estimated scf accuracy    <       0.00210267 Ry

     total magnetization       =     0.63 Bohr mag/cell
     absolute magnetization    =     0.75 Bohr mag/cell

     iteration # 24     ecut=    60.00 Ry     beta= 0.20
     CG style diagonalization

---- Real-time Memory Report at c_bands before calling an iterative solver
             0 MiB given to the printing process from OS
             0 MiB allocation reported by mallinfo(arena+hblkhd)
         97908 MiB available memory on the node where the printing process lives
------------------
     c_bands:  1 eigenvalues not converged
     c_bands:  1 eigenvalues not converged
     ethr =  2.39E-07,  avg # of iterations =  3.2

     negative rho (up, down):  4.830E+00 4.821E+00


     ----------------------------------------------------------------

     Non-local correlation energy =              9.210681483136733

     ----------------------------------------------------------------


     total cpu time spent up to now is     8981.5 secs

     total energy              =  -11591.93216018 Ry
     estimated scf accuracy    <       0.00270458 Ry

     total magnetization       =     0.58 Bohr mag/cell
     absolute magnetization    =     0.70 Bohr mag/cell

     iteration # 25     ecut=    60.00 Ry     beta= 0.20
     CG style diagonalization

---- Real-time Memory Report at c_bands before calling an iterative solver
             0 MiB given to the printing process from OS
             0 MiB allocation reported by mallinfo(arena+hblkhd)
         97905 MiB available memory on the node where the printing process lives
------------------
     c_bands:  1 eigenvalues not converged
     ethr =  2.39E-07,  avg # of iterations =  3.0

     negative rho (up, down):  4.830E+00 4.822E+00


     ----------------------------------------------------------------

     Non-local correlation energy =              9.210299902890597

     ----------------------------------------------------------------


     total cpu time spent up to now is     9233.5 secs

     total energy              =  -11591.93239921 Ry
     estimated scf accuracy    <       0.00097820 Ry

     total magnetization       =     0.56 Bohr mag/cell
     absolute magnetization    =     0.67 Bohr mag/cell

     iteration # 26     ecut=    60.00 Ry     beta= 0.20
     CG style diagonalization

---- Real-time Memory Report at c_bands before calling an iterative solver
             0 MiB given to the printing process from OS
             0 MiB allocation reported by mallinfo(arena+hblkhd)
         97882 MiB available memory on the node where the printing process lives
------------------
     ethr =  1.11E-07,  avg # of iterations =  3.1

     negative rho (up, down):  4.830E+00 4.823E+00


     ----------------------------------------------------------------

     Non-local correlation energy =              9.210028705663303

     ----------------------------------------------------------------


     total cpu time spent up to now is     9495.3 secs

     total energy              =  -11591.93245350 Ry
     estimated scf accuracy    <       0.00175793 Ry

     total magnetization       =     0.52 Bohr mag/cell
     absolute magnetization    =     0.62 Bohr mag/cell

     iteration # 27     ecut=    60.00 Ry     beta= 0.20
     CG style diagonalization

---- Real-time Memory Report at c_bands before calling an iterative solver
             0 MiB given to the printing process from OS
             0 MiB allocation reported by mallinfo(arena+hblkhd)
         97868 MiB available memory on the node where the printing process lives
------------------
     ethr =  1.11E-07,  avg # of iterations =  3.2

     negative rho (up, down):  4.831E+00 4.824E+00


     ----------------------------------------------------------------

     Non-local correlation energy =              9.209918622855895

     ----------------------------------------------------------------


     total cpu time spent up to now is     9762.7 secs

     total energy              =  -11591.93249774 Ry
     estimated scf accuracy    <       0.00093328 Ry

     total magnetization       =     0.48 Bohr mag/cell
     absolute magnetization    =     0.58 Bohr mag/cell

     iteration # 28     ecut=    60.00 Ry     beta= 0.20
     CG style diagonalization

---- Real-time Memory Report at c_bands before calling an iterative solver
             0 MiB given to the printing process from OS
             0 MiB allocation reported by mallinfo(arena+hblkhd)
         97869 MiB available memory on the node where the printing process lives
------------------
     ethr =  1.06E-07,  avg # of iterations =  3.0

     negative rho (up, down):  4.832E+00 4.825E+00


     ----------------------------------------------------------------

     Non-local correlation energy =              9.209731484303859

     ----------------------------------------------------------------


     total cpu time spent up to now is    10009.8 secs

     total energy              =  -11591.93251866 Ry
     estimated scf accuracy    <       0.00090188 Ry

     total magnetization       =     0.47 Bohr mag/cell
     absolute magnetization    =     0.55 Bohr mag/cell

     iteration # 29     ecut=    60.00 Ry     beta= 0.20
     CG style diagonalization

---- Real-time Memory Report at c_bands before calling an iterative solver
             0 MiB given to the printing process from OS
             0 MiB allocation reported by mallinfo(arena+hblkhd)
         97897 MiB available memory on the node where the printing process lives
------------------
     ethr =  1.02E-07,  avg # of iterations =  3.2

     negative rho (up, down):  4.832E+00 4.827E+00


     ----------------------------------------------------------------

     Non-local correlation energy =              9.209579415312149

     ----------------------------------------------------------------


     total cpu time spent up to now is    10282.4 secs

     total energy              =  -11591.93252367 Ry
     estimated scf accuracy    <       0.00051023 Ry

     total magnetization       =     0.44 Bohr mag/cell
     absolute magnetization    =     0.52 Bohr mag/cell

     iteration # 30     ecut=    60.00 Ry     beta= 0.20
     CG style diagonalization

---- Real-time Memory Report at c_bands before calling an iterative solver
             0 MiB given to the printing process from OS
             0 MiB allocation reported by mallinfo(arena+hblkhd)
         97876 MiB available memory on the node where the printing process lives
------------------
     ethr =  5.79E-08,  avg # of iterations =  3.0

     negative rho (up, down):  4.833E+00 4.827E+00


     ----------------------------------------------------------------

     Non-local correlation energy =              9.209483093149537

     ----------------------------------------------------------------


     total cpu time spent up to now is    10528.9 secs

     total energy              =  -11591.93251634 Ry
     estimated scf accuracy    <       0.00069172 Ry

     total magnetization       =     0.41 Bohr mag/cell
     absolute magnetization    =     0.49 Bohr mag/cell

     iteration # 31     ecut=    60.00 Ry     beta= 0.20
     CG style diagonalization

---- Real-time Memory Report at c_bands before calling an iterative solver
             0 MiB given to the printing process from OS
             0 MiB allocation reported by mallinfo(arena+hblkhd)
         97900 MiB available memory on the node where the printing process lives
------------------
     ethr =  5.79E-08,  avg # of iterations =  3.0

     negative rho (up, down):  4.833E+00 4.828E+00


     ----------------------------------------------------------------

     Non-local correlation energy =              9.209412535496718

     ----------------------------------------------------------------


     total cpu time spent up to now is    10776.2 secs

     total energy              =  -11591.93252437 Ry
     estimated scf accuracy    <       0.00039526 Ry

     total magnetization       =     0.39 Bohr mag/cell
     absolute magnetization    =     0.46 Bohr mag/cell

     iteration # 32     ecut=    60.00 Ry     beta= 0.20
     CG style diagonalization

---- Real-time Memory Report at c_bands before calling an iterative solver
             0 MiB given to the printing process from OS
             0 MiB allocation reported by mallinfo(arena+hblkhd)
         97883 MiB available memory on the node where the printing process lives
------------------
     ethr =  4.49E-08,  avg # of iterations =  3.0

     negative rho (up, down):  4.833E+00 4.829E+00


     ----------------------------------------------------------------

     Non-local correlation energy =              9.209326886389633

     ----------------------------------------------------------------


     total cpu time spent up to now is    11025.8 secs

     total energy              =  -11591.93252861 Ry
     estimated scf accuracy    <       0.00016990 Ry

     total magnetization       =     0.38 Bohr mag/cell
     absolute magnetization    =     0.44 Bohr mag/cell

     iteration # 33     ecut=    60.00 Ry     beta= 0.20
     CG style diagonalization

---- Real-time Memory Report at c_bands before calling an iterative solver
             0 MiB given to the printing process from OS
             0 MiB allocation reported by mallinfo(arena+hblkhd)
         97878 MiB available memory on the node where the printing process lives
------------------
     ethr =  1.93E-08,  avg # of iterations =  3.0

     negative rho (up, down):  4.833E+00 4.829E+00


     ----------------------------------------------------------------

     Non-local correlation energy =              9.209288802253043

     ----------------------------------------------------------------


     total cpu time spent up to now is    11275.7 secs

     total energy              =  -11591.93253967 Ry
     estimated scf accuracy    <       0.00006631 Ry

     total magnetization       =     0.35 Bohr mag/cell
     absolute magnetization    =     0.41 Bohr mag/cell

     iteration # 34     ecut=    60.00 Ry     beta= 0.20
     CG style diagonalization

---- Real-time Memory Report at c_bands before calling an iterative solver
             0 MiB given to the printing process from OS
             0 MiB allocation reported by mallinfo(arena+hblkhd)
         97880 MiB available memory on the node where the printing process lives
------------------
     ethr =  7.53E-09,  avg # of iterations =  3.0

     negative rho (up, down):  4.833E+00 4.829E+00


     ----------------------------------------------------------------

     Non-local correlation energy =              9.209259076541905

     ----------------------------------------------------------------


     total cpu time spent up to now is    11521.4 secs

     total energy              =  -11591.93254164 Ry
     estimated scf accuracy    <       0.00008808 Ry

     total magnetization       =     0.33 Bohr mag/cell
     absolute magnetization    =     0.39 Bohr mag/cell

     iteration # 35     ecut=    60.00 Ry     beta= 0.20
     CG style diagonalization

---- Real-time Memory Report at c_bands before calling an iterative solver
             0 MiB given to the printing process from OS
             0 MiB allocation reported by mallinfo(arena+hblkhd)
         97897 MiB available memory on the node where the printing process lives
------------------
     ethr =  7.53E-09,  avg # of iterations =  3.0

     negative rho (up, down):  4.832E+00 4.829E+00


     ----------------------------------------------------------------

     Non-local correlation energy =              9.209266531177143

     ----------------------------------------------------------------


     total cpu time spent up to now is    11766.9 secs

     total energy              =  -11591.93255449 Ry
     estimated scf accuracy    <       0.00003550 Ry

     total magnetization       =     0.31 Bohr mag/cell
     absolute magnetization    =     0.37 Bohr mag/cell

     iteration # 36     ecut=    60.00 Ry     beta= 0.20
     CG style diagonalization

---- Real-time Memory Report at c_bands before calling an iterative solver
             0 MiB given to the printing process from OS
             0 MiB allocation reported by mallinfo(arena+hblkhd)
         97872 MiB available memory on the node where the printing process lives
------------------
     ethr =  4.03E-09,  avg # of iterations =  3.0

     negative rho (up, down):  4.832E+00 4.829E+00


     ----------------------------------------------------------------

     Non-local correlation energy =              9.209268074374881

     ----------------------------------------------------------------


     total cpu time spent up to now is    12012.3 secs

     total energy              =  -11591.93256423 Ry
     estimated scf accuracy    <       0.00002652 Ry

     total magnetization       =     0.29 Bohr mag/cell
     absolute magnetization    =     0.34 Bohr mag/cell

     iteration # 37     ecut=    60.00 Ry     beta= 0.20
     CG style diagonalization

---- Real-time Memory Report at c_bands before calling an iterative solver
             0 MiB given to the printing process from OS
             0 MiB allocation reported by mallinfo(arena+hblkhd)
         97884 MiB available memory on the node where the printing process lives
------------------
     ethr =  3.01E-09,  avg # of iterations =  3.0

     negative rho (up, down):  4.832E+00 4.829E+00


     ----------------------------------------------------------------

     Non-local correlation energy =              9.209271668389201

     ----------------------------------------------------------------


     total cpu time spent up to now is    12258.2 secs

     total energy              =  -11591.93256953 Ry
     estimated scf accuracy    <       0.00002228 Ry

     total magnetization       =     0.27 Bohr mag/cell
     absolute magnetization    =     0.31 Bohr mag/cell

     iteration # 38     ecut=    60.00 Ry     beta= 0.20
     CG style diagonalization

---- Real-time Memory Report at c_bands before calling an iterative solver
             0 MiB given to the printing process from OS
             0 MiB allocation reported by mallinfo(arena+hblkhd)
         97875 MiB available memory on the node where the printing process lives
------------------
     ethr =  2.53E-09,  avg # of iterations =  3.0

     negative rho (up, down):  4.831E+00 4.829E+00


     ----------------------------------------------------------------

     Non-local correlation energy =              9.209283612691813

     ----------------------------------------------------------------


     total cpu time spent up to now is    12503.8 secs

     total energy              =  -11591.93257501 Ry
     estimated scf accuracy    <       0.00004582 Ry

     total magnetization       =     0.25 Bohr mag/cell
     absolute magnetization    =     0.30 Bohr mag/cell

     iteration # 39     ecut=    60.00 Ry     beta= 0.20
     CG style diagonalization

---- Real-time Memory Report at c_bands before calling an iterative solver
             0 MiB given to the printing process from OS
             0 MiB allocation reported by mallinfo(arena+hblkhd)
         97874 MiB available memory on the node where the printing process lives
------------------
     ethr =  2.53E-09,  avg # of iterations =  3.0

     negative rho (up, down):  4.831E+00 4.829E+00


     ----------------------------------------------------------------

     Non-local correlation energy =              9.209318216714802

     ----------------------------------------------------------------


     total cpu time spent up to now is    12750.1 secs

     total energy              =  -11591.93258276 Ry
     estimated scf accuracy    <       0.00002078 Ry

     total magnetization       =     0.24 Bohr mag/cell
     absolute magnetization    =     0.28 Bohr mag/cell

     iteration # 40     ecut=    60.00 Ry     beta= 0.20
     CG style diagonalization

---- Real-time Memory Report at c_bands before calling an iterative solver
             0 MiB given to the printing process from OS
             0 MiB allocation reported by mallinfo(arena+hblkhd)
         97879 MiB available memory on the node where the printing process lives
------------------
     ethr =  2.36E-09,  avg # of iterations =  3.0

     negative rho (up, down):  4.831E+00 4.829E+00


     ----------------------------------------------------------------

     Non-local correlation energy =              9.209326119709040

     ----------------------------------------------------------------


     total cpu time spent up to now is    12995.9 secs

     total energy              =  -11591.93258506 Ry
     estimated scf accuracy    <       0.00002107 Ry

     total magnetization       =     0.21 Bohr mag/cell
     absolute magnetization    =     0.25 Bohr mag/cell

     iteration # 41     ecut=    60.00 Ry     beta= 0.20
     CG style diagonalization

---- Real-time Memory Report at c_bands before calling an iterative solver
             0 MiB given to the printing process from OS
             0 MiB allocation reported by mallinfo(arena+hblkhd)
         97869 MiB available memory on the node where the printing process lives
------------------
     ethr =  2.36E-09,  avg # of iterations =  3.0

     negative rho (up, down):  4.830E+00 4.828E+00


     ----------------------------------------------------------------

     Non-local correlation energy =              9.209341989360009

     ----------------------------------------------------------------


     total cpu time spent up to now is    13241.9 secs

     total energy              =  -11591.93258731 Ry
     estimated scf accuracy    <       0.00002205 Ry

     total magnetization       =     0.20 Bohr mag/cell
     absolute magnetization    =     0.24 Bohr mag/cell

     iteration # 42     ecut=    60.00 Ry     beta= 0.20
     CG style diagonalization

---- Real-time Memory Report at c_bands before calling an iterative solver
             0 MiB given to the printing process from OS
             0 MiB allocation reported by mallinfo(arena+hblkhd)
         97878 MiB available memory on the node where the printing process lives
------------------
     ethr =  2.36E-09,  avg # of iterations =  3.0

     negative rho (up, down):  4.830E+00 4.828E+00


     ----------------------------------------------------------------

     Non-local correlation energy =              9.209362334525100

     ----------------------------------------------------------------


     total cpu time spent up to now is    13487.8 secs

     total energy              =  -11591.93258931 Ry
     estimated scf accuracy    <       0.00001178 Ry

     total magnetization       =     0.19 Bohr mag/cell
     absolute magnetization    =     0.22 Bohr mag/cell

     iteration # 43     ecut=    60.00 Ry     beta= 0.20
     CG style diagonalization

---- Real-time Memory Report at c_bands before calling an iterative solver
             0 MiB given to the printing process from OS
             0 MiB allocation reported by mallinfo(arena+hblkhd)
         97873 MiB available memory on the node where the printing process lives
------------------
     ethr =  1.34E-09,  avg # of iterations =  3.0

     negative rho (up, down):  4.830E+00 4.828E+00


     ----------------------------------------------------------------

     Non-local correlation energy =              9.209385284959836

     ----------------------------------------------------------------


     total cpu time spent up to now is    13733.6 secs

     total energy              =  -11591.93259059 Ry
     estimated scf accuracy    <       0.00000983 Ry

     total magnetization       =     0.18 Bohr mag/cell
     absolute magnetization    =     0.21 Bohr mag/cell

     iteration # 44     ecut=    60.00 Ry     beta= 0.20
     CG style diagonalization

---- Real-time Memory Report at c_bands before calling an iterative solver
             0 MiB given to the printing process from OS
             0 MiB allocation reported by mallinfo(arena+hblkhd)
         97862 MiB available memory on the node where the printing process lives
------------------
     ethr =  1.12E-09,  avg # of iterations =  3.0

     negative rho (up, down):  4.830E+00 4.828E+00


     ----------------------------------------------------------------

     Non-local correlation energy =              9.209403188064663

     ----------------------------------------------------------------


     total cpu time spent up to now is    13980.7 secs

     total energy              =  -11591.93259131 Ry
     estimated scf accuracy    <       0.00000582 Ry

     total magnetization       =     0.16 Bohr mag/cell
     absolute magnetization    =     0.19 Bohr mag/cell

     iteration # 45     ecut=    60.00 Ry     beta= 0.20
     CG style diagonalization

---- Real-time Memory Report at c_bands before calling an iterative solver
             0 MiB given to the printing process from OS
             0 MiB allocation reported by mallinfo(arena+hblkhd)
         97856 MiB available memory on the node where the printing process lives
------------------
     ethr =  6.61E-10,  avg # of iterations =  3.0

     negative rho (up, down):  4.830E+00 4.828E+00


     ----------------------------------------------------------------

     Non-local correlation energy =              9.209422180915750

     ----------------------------------------------------------------


     total cpu time spent up to now is    14226.5 secs

     total energy              =  -11591.93259166 Ry
     estimated scf accuracy    <       0.00000336 Ry

     total magnetization       =     0.15 Bohr mag/cell
     absolute magnetization    =     0.17 Bohr mag/cell

     iteration # 46     ecut=    60.00 Ry     beta= 0.20
     CG style diagonalization

---- Real-time Memory Report at c_bands before calling an iterative solver
             0 MiB given to the printing process from OS
             0 MiB allocation reported by mallinfo(arena+hblkhd)
         97877 MiB available memory on the node where the printing process lives
------------------
     ethr =  3.81E-10,  avg # of iterations =  3.0

     negative rho (up, down):  4.829E+00 4.828E+00


     ----------------------------------------------------------------

     Non-local correlation energy =              9.209440580225307

     ----------------------------------------------------------------


     total cpu time spent up to now is    14472.7 secs

     total energy              =  -11591.93259149 Ry
     estimated scf accuracy    <       0.00000458 Ry

     total magnetization       =     0.13 Bohr mag/cell
     absolute magnetization    =     0.16 Bohr mag/cell

     iteration # 47     ecut=    60.00 Ry     beta= 0.20
     CG style diagonalization

---- Real-time Memory Report at c_bands before calling an iterative solver
             0 MiB given to the printing process from OS
             0 MiB allocation reported by mallinfo(arena+hblkhd)
         97861 MiB available memory on the node where the printing process lives
------------------
     ethr =  3.81E-10,  avg # of iterations =  3.0

     negative rho (up, down):  4.829E+00 4.828E+00


     ----------------------------------------------------------------

     Non-local correlation energy =              9.209450639885219

     ----------------------------------------------------------------


     total cpu time spent up to now is    14718.6 secs

     total energy              =  -11591.93259161 Ry
     estimated scf accuracy    <       0.00000340 Ry

     total magnetization       =     0.12 Bohr mag/cell
     absolute magnetization    =     0.14 Bohr mag/cell

     iteration # 48     ecut=    60.00 Ry     beta= 0.20
     CG style diagonalization

---- Real-time Memory Report at c_bands before calling an iterative solver
             0 MiB given to the printing process from OS
             0 MiB allocation reported by mallinfo(arena+hblkhd)
         97879 MiB available memory on the node where the printing process lives
------------------
     ethr =  3.81E-10,  avg # of iterations =  3.0

     negative rho (up, down):  4.829E+00 4.828E+00


     ----------------------------------------------------------------

     Non-local correlation energy =              9.209460389789150

     ----------------------------------------------------------------


     total cpu time spent up to now is    14964.8 secs

     total energy              =  -11591.93259163 Ry
     estimated scf accuracy    <       0.00000220 Ry

     total magnetization       =     0.11 Bohr mag/cell
     absolute magnetization    =     0.13 Bohr mag/cell

     iteration # 49     ecut=    60.00 Ry     beta= 0.20
     CG style diagonalization

---- Real-time Memory Report at c_bands before calling an iterative solver
             0 MiB given to the printing process from OS
             0 MiB allocation reported by mallinfo(arena+hblkhd)
         97897 MiB available memory on the node where the printing process lives
------------------
     ethr =  2.49E-10,  avg # of iterations =  3.0

     negative rho (up, down):  4.829E+00 4.828E+00


     ----------------------------------------------------------------

     Non-local correlation energy =              9.209468754374296

     ----------------------------------------------------------------


     total cpu time spent up to now is    15210.7 secs

     total energy              =  -11591.93259171 Ry
     estimated scf accuracy    <       0.00000230 Ry

     total magnetization       =     0.10 Bohr mag/cell
     absolute magnetization    =     0.12 Bohr mag/cell

     iteration # 50     ecut=    60.00 Ry     beta= 0.20
     CG style diagonalization

---- Real-time Memory Report at c_bands before calling an iterative solver
             0 MiB given to the printing process from OS
             0 MiB allocation reported by mallinfo(arena+hblkhd)
         97885 MiB available memory on the node where the printing process lives
------------------
     ethr =  2.49E-10,  avg # of iterations =  3.0

     negative rho (up, down):  4.829E+00 4.828E+00


     ----------------------------------------------------------------

     Non-local correlation energy =              9.209474578830372

     ----------------------------------------------------------------


     total cpu time spent up to now is    15456.6 secs

     total energy              =  -11591.93259182 Ry
     estimated scf accuracy    <       0.00000191 Ry

     total magnetization       =     0.09 Bohr mag/cell
     absolute magnetization    =     0.11 Bohr mag/cell

     iteration # 51     ecut=    60.00 Ry     beta= 0.20
     CG style diagonalization

---- Real-time Memory Report at c_bands before calling an iterative solver
             0 MiB given to the printing process from OS
             0 MiB allocation reported by mallinfo(arena+hblkhd)
         97890 MiB available memory on the node where the printing process lives
------------------
     ethr =  2.17E-10,  avg # of iterations =  3.0

     negative rho (up, down):  4.829E+00 4.828E+00


     ----------------------------------------------------------------

     Non-local correlation energy =              9.209477575831217

     ----------------------------------------------------------------


     total cpu time spent up to now is    15702.5 secs

     total energy              =  -11591.93259198 Ry
     estimated scf accuracy    <       0.00000209 Ry

     total magnetization       =     0.08 Bohr mag/cell
     absolute magnetization    =     0.10 Bohr mag/cell

     iteration # 52     ecut=    60.00 Ry     beta= 0.20
     CG style diagonalization

---- Real-time Memory Report at c_bands before calling an iterative solver
             0 MiB given to the printing process from OS
             0 MiB allocation reported by mallinfo(arena+hblkhd)
         97901 MiB available memory on the node where the printing process lives
------------------
     ethr =  2.17E-10,  avg # of iterations =  3.0

     negative rho (up, down):  4.829E+00 4.828E+00


     ----------------------------------------------------------------

     Non-local correlation energy =              9.209480797825259

     ----------------------------------------------------------------


     total cpu time spent up to now is    15948.4 secs

     total energy              =  -11591.93259239 Ry
     estimated scf accuracy    <       0.00000139 Ry

     total magnetization       =     0.08 Bohr mag/cell
     absolute magnetization    =     0.10 Bohr mag/cell

     iteration # 53     ecut=    60.00 Ry     beta= 0.20
     CG style diagonalization

---- Real-time Memory Report at c_bands before calling an iterative solver
             0 MiB given to the printing process from OS
             0 MiB allocation reported by mallinfo(arena+hblkhd)
         97879 MiB available memory on the node where the printing process lives
------------------
     ethr =  1.58E-10,  avg # of iterations =  3.0

     negative rho (up, down):  4.829E+00 4.828E+00


     ----------------------------------------------------------------

     Non-local correlation energy =              9.209483103768896

     ----------------------------------------------------------------


     total cpu time spent up to now is    16195.5 secs

     total energy              =  -11591.93259283 Ry
     estimated scf accuracy    <       0.00000133 Ry

     total magnetization       =     0.07 Bohr mag/cell
     absolute magnetization    =     0.09 Bohr mag/cell

     iteration # 54     ecut=    60.00 Ry     beta= 0.20
     CG style diagonalization

---- Real-time Memory Report at c_bands before calling an iterative solver
             0 MiB given to the printing process from OS
             0 MiB allocation reported by mallinfo(arena+hblkhd)
         97886 MiB available memory on the node where the printing process lives
------------------
     ethr =  1.51E-10,  avg # of iterations =  3.0

     negative rho (up, down):  4.829E+00 4.828E+00


     ----------------------------------------------------------------

     Non-local correlation energy =              9.209484650717041

     ----------------------------------------------------------------


     total cpu time spent up to now is    16441.5 secs

     total energy              =  -11591.93259313 Ry
     estimated scf accuracy    <       0.00000100 Ry

     total magnetization       =     0.06 Bohr mag/cell
     absolute magnetization    =     0.08 Bohr mag/cell

     iteration # 55     ecut=    60.00 Ry     beta= 0.20
     CG style diagonalization

---- Real-time Memory Report at c_bands before calling an iterative solver
             0 MiB given to the printing process from OS
             0 MiB allocation reported by mallinfo(arena+hblkhd)
         97875 MiB available memory on the node where the printing process lives
------------------
     ethr =  1.14E-10,  avg # of iterations =  3.0

     negative rho (up, down):  4.829E+00 4.829E+00


     ----------------------------------------------------------------

     Non-local correlation energy =              9.209457061714652

     ----------------------------------------------------------------

 
     Magnetic moment per site  (integrated on atomic sphere of radius R)
     atom   1 (R=0.041)  charge= 10.9188  magn=  0.0004
     atom   2 (R=0.041)  charge= 10.8874  magn=  0.0004
     atom   3 (R=0.041)  charge= 10.8903  magn=  0.0001
     atom   4 (R=0.041)  charge= 10.8862  magn=  0.0098
     atom   5 (R=0.041)  charge= 10.8987  magn=  0.0073
     atom   6 (R=0.041)  charge= 10.8876  magn=  0.0015
     atom   7 (R=0.041)  charge= 10.9190  magn=  0.0008
     atom   8 (R=0.041)  charge= 10.8858  magn= -0.0001
     atom   9 (R=0.041)  charge= 10.8726  magn=  0.0001
     atom  10 (R=0.041)  charge= 10.8786  magn=  0.0031
     atom  11 (R=0.041)  charge= 10.8687  magn=  0.0001
     atom  12 (R=0.041)  charge= 10.8886  magn= -0.0001
     atom  13 (R=0.041)  charge= 10.8872  magn=  0.0013
     atom  14 (R=0.041)  charge= 10.9213  magn=  0.0005
     atom  15 (R=0.041)  charge= 10.8931  magn=  0.0002
     atom  16 (R=0.041)  charge= 10.8963  magn= -0.0002
     atom  17 (R=0.041)  charge= 10.8896  magn= -0.0001
     atom  18 (R=0.041)  charge= 10.9085  magn=  0.0005
     atom  19 (R=0.041)  charge= 10.8820  magn=  0.0016
     atom  20 (R=0.041)  charge= 10.9118  magn= -0.0002
     atom  21 (R=0.041)  charge= 10.8918  magn=  0.0004
     atom  22 (R=0.041)  charge= 10.9082  magn=  0.0002
     atom  23 (R=0.041)  charge= 10.8983  magn=  0.0012
     atom  24 (R=0.041)  charge= 10.8967  magn= -0.0003
     atom  25 (R=0.041)  charge= 10.8969  magn=  0.0004
     atom  26 (R=0.041)  charge= 10.9146  magn= -0.0002
     atom  27 (R=0.041)  charge= 10.8830  magn=  0.0015
     atom  28 (R=0.041)  charge= 10.8832  magn=  0.0001
     atom  29 (R=0.041)  charge= 10.8907  magn= -0.0001
     atom  30 (R=0.041)  charge= 10.9083  magn=  0.0001
     atom  31 (R=0.041)  charge= 10.9074  magn= -0.0002
     atom  32 (R=0.041)  charge= 10.8788  magn=  0.0003
     atom  33 (R=0.041)  charge= 10.8869  magn= -0.0002
     atom  34 (R=0.041)  charge= 10.9009  magn= -0.0007
     atom  35 (R=0.041)  charge= 10.8785  magn=  0.0020
     atom  36 (R=0.041)  charge= 10.8876  magn=  0.0003
     atom  37 (R=0.041)  charge= 10.8880  magn=  0.0004
     atom  38 (R=0.041)  charge= 10.8783  magn=  0.0004
     atom  39 (R=0.041)  charge= 10.8834  magn= -0.0001
     atom  40 (R=0.041)  charge= 10.9120  magn=  0.0009
     atom  41 (R=0.041)  charge= 10.8884  magn=  0.0001
     atom  42 (R=0.041)  charge= 10.8723  magn=  0.0013
     atom  43 (R=0.041)  charge= 10.8882  magn=  0.0003
     atom  44 (R=0.041)  charge= 10.8834  magn=  0.0002
     atom  45 (R=0.041)  charge= 10.8860  magn=  0.0001
     atom  46 (R=0.041)  charge= 10.8901  magn=  0.0004
     atom  47 (R=0.041)  charge= 10.8792  magn=  0.0000
     atom  48 (R=0.041)  charge= 10.8896  magn= -0.0001
     atom  49 (R=0.041)  charge= 10.9150  magn=  0.0007
     atom  50 (R=0.041)  charge= 10.8842  magn= -0.0002
     atom  51 (R=0.041)  charge= 10.8864  magn=  0.0005
     atom  52 (R=0.041)  charge= 10.8818  magn=  0.0005
     atom  53 (R=0.041)  charge= 10.8711  magn=  0.0027
     atom  54 (R=0.041)  charge= 10.8877  magn= -0.0001
     atom  55 (R=0.041)  charge= 10.9213  magn= -0.0002
     atom  56 (R=0.041)  charge=  1.0395  magn= -0.0000

     total cpu time spent up to now is    16687.3 secs

     End of self-consistent calculation

 ------ SPIN UP ------------


          k = 0.0000 0.0000 0.0000 (211851 PWs)   bands (ev):

   -56.0413 -55.8944 -55.8024 -55.7831 -55.7087 -55.6825 -55.6465 -55.5975
   -55.5701 -55.5536 -55.5381 -55.5137 -55.5069 -55.5038 -55.4577 -55.4534
   -55.4393 -55.4323 -55.4014 -55.3885 -55.3851 -55.3788 -55.3725 -55.3634
   -55.3536 -55.3449 -55.3298 -55.3202 -55.3154 -55.3070 -55.3029 -55.2937
   -55.2869 -55.2840 -55.2765 -55.2727 -55.2583 -55.2466 -55.2414 -55.2375
   -55.2348 -55.2204 -55.2172 -55.2146 -55.2011 -55.1852 -55.1765 -55.1632
   -55.1487 -55.1483 -55.1330 -55.1257 -55.1135 -55.1121 -55.1062 -55.1002
   -55.0905 -55.0838 -55.0797 -55.0683 -55.0636 -55.0584 -55.0543 -55.0432
   -55.0395 -55.0334 -55.0256 -55.0249 -55.0204 -55.0162 -55.0046 -55.0016
   -54.9989 -54.9939 -54.9896 -54.9805 -54.9663 -54.9604 -54.9482 -54.9459
   -54.9399 -54.9367 -54.9283 -54.9257 -54.9109 -54.9087 -54.9020 -54.8934
   -54.8861 -54.8740 -54.8672 -54.8661 -54.8631 -54.8564 -54.8505 -54.8447
   -54.8402 -54.8369 -54.8261 -54.8220 -54.8187 -54.8111 -54.8062 -54.8038
   -54.7987 -54.7971 -54.7945 -54.7820 -54.7792 -54.7766 -54.7723 -54.7645
   -54.7629 -54.7582 -54.7514 -54.7443 -54.7399 -54.7388 -54.7372 -54.7257
   -54.7234 -54.7209 -54.7177 -54.7143 -54.7047 -54.7022 -54.6906 -54.6845
   -54.6798 -54.6645 -54.6568 -54.6509 -54.6444 -54.6350 -54.6175 -54.6108
   -54.6028 -54.5978 -54.5892 -54.5840 -54.5658 -54.5631 -54.5614 -54.5463
   -54.5442 -54.5278 -54.5143 -54.4859 -54.4834 -54.4776 -54.4745 -54.4676
   -54.4541 -54.4333 -54.4085 -54.4083 -54.4035 -54.3841 -54.3694 -54.3650
   -54.3217 -54.3025 -54.2763 -54.2750 -54.2466 -10.9442 -10.0732 -10.0091
    -9.7805  -9.4026  -9.1261  -9.0406  -9.0314  -8.9818  -8.8843  -8.8445
    -8.7690  -8.6949  -8.6702  -8.5536  -8.5262  -8.4973  -8.4808  -8.4444
    -8.3685  -8.3388  -8.2384  -8.1984  -8.1859  -8.1224  -8.1169  -8.0896
    -8.0791  -8.0642  -8.0216  -7.9986  -7.9821  -7.9240  -7.9016  -7.8933
    -7.8706  -7.8578  -7.8359  -7.7949  -7.7780  -7.7461  -7.7349  -7.7099
    -7.6512  -7.6411  -7.6241  -7.5933  -7.5658  -7.5282  -7.5134  -7.4842
    -7.4451  -7.4245  -7.3869  -7.3390  -7.3110  -7.2895  -7.2234  -7.2137
    -7.1899  -7.1695  -7.1467  -7.1265  -7.1036  -7.0869  -7.0751  -7.0462
    -7.0236  -7.0032  -6.9905  -6.9565  -6.9463  -6.9313  -6.8992  -6.8816
    -6.8753  -6.8453  -6.8419  -6.8091  -6.7427  -6.7209  -6.7046  -6.6838
    -6.6569  -6.6542  -6.6261  -6.6023  -6.5809  -6.5626  -6.5371  -6.4915
    -6.4826  -6.4336  -6.4270  -6.4096  -6.3739  -6.3263  -6.3023  -6.3001
    -6.2499  -6.2454  -6.1972  -6.1365  -6.1146  -6.0858  -6.0734  -6.0516
    -6.0352  -5.9755  -5.9301  -5.9202  -5.9103  -5.8547  -5.8096  -5.7616
    -5.7295  -5.6994  -5.6711  -5.6409  -5.6233  -5.6115  -5.5455  -5.5366
    -5.5247  -5.4901  -5.4720  -5.4524  -5.4411  -5.4087  -5.4058  -5.3852
    -5.3656  -5.3473  -5.3303  -5.2981  -5.2890  -5.2457  -5.2245  -5.2141
    -5.1797  -5.1538  -5.1092  -5.1012  -5.0701  -5.0610  -5.0332  -5.0081
    -4.9991  -4.9941  -4.9606  -4.9177  -4.8990  -4.8906  -4.8707  -4.8356
    -4.8224  -4.7962  -4.7721  -4.7698  -4.7247  -4.6851  -4.6764  -4.6708
    -4.6392  -4.6073  -4.5814  -4.5715  -4.5414  -4.5123  -4.4993  -4.4780
    -4.4538  -4.4435  -4.4193  -4.4074  -4.3759  -4.3561  -4.3300  -4.3125
    -4.3020  -4.2856  -4.2497  -4.2187  -4.1916  -4.1745  -4.1637  -4.1529
    -4.1128  -4.1021  -4.0905  -4.0678  -4.0523  -4.0411  -4.0345  -4.0146
    -3.9916  -3.9559  -3.9243  -3.9172  -3.9045  -3.8910  -3.8743  -3.8548
    -3.8349  -3.8314  -3.8044  -3.7825  -3.7686  -3.7596  -3.7297  -3.7166
    -3.7132  -3.6743  -3.6592  -3.6405  -3.6338  -3.6188  -3.6091  -3.6008
    -3.5611  -3.5413  -3.5222  -3.5145  -3.5017  -3.4793  -3.4655  -3.4470
    -3.4401  -3.4255  -3.4230  -3.4068  -3.3975  -3.3929  -3.3737  -3.3602
    -3.3465  -3.3355  -3.3148  -3.3084  -3.3032  -3.2824  -3.2758  -3.2636
    -3.2506  -3.2391  -3.2246  -3.2133  -3.1978  -3.1873  -3.1744  -3.1565
    -3.1335  -3.1124  -3.1042  -3.0987  -3.0912  -3.0714  -3.0514  -3.0237
    -3.0194  -3.0127  -2.9684  -2.9505  -2.9446  -2.9120  -2.8990  -2.8899
    -2.8655  -2.8532  -2.8166  -2.7631  -2.7472  -2.7089  -2.6641  -2.6432
    -2.5761  -2.5535  -2.5141  -2.5054  -2.4835  -2.4437  -2.4292  -2.4069
    -2.4016  -2.3530  -2.3395  -2.3136  -2.2941  -2.2762  -2.2515  -2.2349
    -2.2087  -2.1409  -2.1064  -2.0459  -2.0419  -1.9871  -1.9148  -1.8687
    -1.7503  -1.7357  -1.6624  -1.5734  -1.5237  -1.2842  -1.0802  -0.9756
    -0.7884  -0.7531  -0.6836  -0.5747  -0.5151  -0.4513  -0.3987  -0.3734
    -0.3105  -0.2364  -0.1580  -0.0030   0.0780   0.2098   0.3243   0.5466
     0.6500   0.8531   0.8772   0.9990   1.0221   1.0888   1.1816   1.2600
     1.3250   1.3556   1.4083   1.5588   1.5968   1.6936   1.7836   1.8642
     1.9702   2.0112   2.0992   2.1405   2.1966   2.2124   2.3371   2.3545
     2.4160   2.4540   2.4889   2.5046   2.5155   2.5247   2.5395   2.6052
     2.6510   2.6894   2.7042   2.7119   2.7415   2.7514   2.7854   2.8310
     2.8474

     occupation numbers 
     1.0000   1.0000   1.0000   1.0000   1.0000   1.0000   1.0000   1.0000
     1.0000   1.0000   1.0000   1.0000   1.0000   1.0000   1.0000   1.0000
[...]
     atom   11 type  1   force =     0.01140567   -0.00374285    0.00199349
     atom   12 type  1   force =    -0.00157041    0.01883330   -0.00837149
     atom   13 type  1   force =     0.02473977   -0.00183648    0.00635056
     atom   14 type  1   force =     0.00421605    0.00993096   -0.01415137
     atom   15 type  1   force =     0.02251525    0.01285493   -0.00162841
     atom   16 type  1   force =    -0.02342703    0.00089280    0.00186096
     atom   17 type  1   force =    -0.00751674   -0.02166365   -0.00550963
     atom   18 type  1   force =    -0.01204007    0.00549580    0.01093997
     atom   19 type  1   force =    -0.01091232    0.00639579   -0.00799505
     atom   20 type  1   force =     0.01026320   -0.00818099    0.00162865
     atom   21 type  1   force =     0.01264408    0.01936613    0.00855622
     atom   22 type  1   force =    -0.00273119   -0.01561295   -0.00807629
     atom   23 type  1   force =    -0.00762950    0.01029871    0.02425216
     atom   24 type  1   force =    -0.02262179    0.00599584   -0.00360805
     atom   25 type  1   force =    -0.02111977   -0.01423600    0.01983049
     atom   26 type  1   force =    -0.01189081   -0.01250674   -0.00142927
     atom   27 type  1   force =     0.00842953   -0.01831675    0.00710431
     atom   28 type  1   force =    -0.00210391    0.00705883    0.00482045
     atom   29 type  1   force =     0.00101986    0.00589474    0.00161274
     atom   30 type  1   force =    -0.01057134   -0.00144788   -0.01015931
     atom   31 type  1   force =    -0.00899024    0.01172105   -0.00174657
     atom   32 type  1   force =     0.01660384    0.00134276    0.00241323
     atom   33 type  1   force =    -0.00469055   -0.00338863   -0.01905641
     atom   34 type  1   force =     0.01360068   -0.01706145   -0.02062510
     atom   35 type  1   force =     0.00018804   -0.00725928   -0.00277132
     atom   36 type  1   force =    -0.00584933    0.01258960    0.01510346
     atom   37 type  1   force =     0.01864986   -0.00494705    0.00841684
     atom   38 type  1   force =    -0.00451532    0.00302242    0.01630804
     atom   39 type  1   force =    -0.01710622   -0.00781245   -0.00779961
     atom   40 type  1   force =     0.01262178    0.01374651   -0.00136746
     atom   41 type  1   force =    -0.01212835    0.01326396   -0.02262296
     atom   42 type  1   force =    -0.00392365    0.01878802   -0.00029443
     atom   43 type  1   force =    -0.00617389    0.01359993   -0.01591278
     atom   44 type  1   force =    -0.00155977   -0.01857993    0.00607197
     atom   45 type  1   force =     0.00074659   -0.02003656    0.00493005
     atom   46 type  1   force =     0.01135804   -0.01954097    0.00576462
     atom   47 type  1   force =    -0.00104827   -0.00000866   -0.02019954
     atom   48 type  1   force =     0.00694561   -0.02254496   -0.00972955
     atom   49 type  1   force =    -0.00235609   -0.00812606    0.01236506
     atom   50 type  1   force =     0.00037014   -0.00825532   -0.02143550
     atom   51 type  1   force =    -0.00607634    0.02065486    0.00900908
     atom   52 type  1   force =    -0.01625472    0.01154364    0.00606796
     atom   53 type  1   force =     0.00502589   -0.01370688   -0.01289026
     atom   54 type  1   force =    -0.00762213   -0.01250420   -0.01763676
     atom   55 type  1   force =     0.01608054   -0.00124976   -0.01177779
     atom   56 type  2   force =     0.00000000    0.00000000    0.00000000
     The Hubbard contrib.    to forces
     atom    1 type  1   force =     0.00000000    0.00000000    0.00000000
     atom    2 type  1   force =     0.00000000    0.00000000    0.00000000
     atom    3 type  1   force =     0.00000000    0.00000000    0.00000000
     atom    4 type  1   force =     0.00000000    0.00000000    0.00000000
     atom    5 type  1   force =     0.00000000    0.00000000    0.00000000
     atom    6 type  1   force =     0.00000000    0.00000000    0.00000000
     atom    7 type  1   force =     0.00000000    0.00000000    0.00000000
     atom    8 type  1   force =     0.00000000    0.00000000    0.00000000
     atom    9 type  1   force =     0.00000000    0.00000000    0.00000000
     atom   10 type  1   force =     0.00000000    0.00000000    0.00000000
     atom   11 type  1   force =     0.00000000    0.00000000    0.00000000
     atom   12 type  1   force =     0.00000000    0.00000000    0.00000000
     atom   13 type  1   force =     0.00000000    0.00000000    0.00000000
     atom   14 type  1   force =     0.00000000    0.00000000    0.00000000
     atom   15 type  1   force =     0.00000000    0.00000000    0.00000000
     atom   16 type  1   force =     0.00000000    0.00000000    0.00000000
     atom   17 type  1   force =     0.00000000    0.00000000    0.00000000
     atom   18 type  1   force =     0.00000000    0.00000000    0.00000000
     atom   19 type  1   force =     0.00000000    0.00000000    0.00000000
     atom   20 type  1   force =     0.00000000    0.00000000    0.00000000
     atom   21 type  1   force =     0.00000000    0.00000000    0.00000000
     atom   22 type  1   force =     0.00000000    0.00000000    0.00000000
     atom   23 type  1   force =     0.00000000    0.00000000    0.00000000
     atom   24 type  1   force =     0.00000000    0.00000000    0.00000000
     atom   25 type  1   force =     0.00000000    0.00000000    0.00000000
     atom   26 type  1   force =     0.00000000    0.00000000    0.00000000
     atom   27 type  1   force =     0.00000000    0.00000000    0.00000000
     atom   28 type  1   force =     0.00000000    0.00000000    0.00000000
     atom   29 type  1   force =     0.00000000    0.00000000    0.00000000
     atom   30 type  1   force =     0.00000000    0.00000000    0.00000000
     atom   31 type  1   force =     0.00000000    0.00000000    0.00000000
     atom   32 type  1   force =     0.00000000    0.00000000    0.00000000
     atom   33 type  1   force =     0.00000000    0.00000000    0.00000000
     atom   34 type  1   force =     0.00000000    0.00000000    0.00000000
     atom   35 type  1   force =     0.00000000    0.00000000    0.00000000
     atom   36 type  1   force =     0.00000000    0.00000000    0.00000000
     atom   37 type  1   force =     0.00000000    0.00000000    0.00000000
     atom   38 type  1   force =     0.00000000    0.00000000    0.00000000
     atom   39 type  1   force =     0.00000000    0.00000000    0.00000000
     atom   40 type  1   force =     0.00000000    0.00000000    0.00000000
     atom   41 type  1   force =     0.00000000    0.00000000    0.00000000
     atom   42 type  1   force =     0.00000000    0.00000000    0.00000000
     atom   43 type  1   force =     0.00000000    0.00000000    0.00000000
     atom   44 type  1   force =     0.00000000    0.00000000    0.00000000
     atom   45 type  1   force =     0.00000000    0.00000000    0.00000000
     atom   46 type  1   force =     0.00000000    0.00000000    0.00000000
     atom   47 type  1   force =     0.00000000    0.00000000    0.00000000
     atom   48 type  1   force =     0.00000000    0.00000000    0.00000000
     atom   49 type  1   force =     0.00000000    0.00000000    0.00000000
     atom   50 type  1   force =     0.00000000    0.00000000    0.00000000
     atom   51 type  1   force =     0.00000000    0.00000000    0.00000000
     atom   52 type  1   force =     0.00000000    0.00000000    0.00000000
     atom   53 type  1   force =     0.00000000    0.00000000    0.00000000
     atom   54 type  1   force =     0.00000000    0.00000000    0.00000000
     atom   55 type  1   force =     0.00000000    0.00000000    0.00000000
     atom   56 type  2   force =     0.00000000    0.00000000    0.00000000
     The SCF correction term to forces
     atom    1 type  1   force =     0.00001346   -0.00002653   -0.00001103
     atom    2 type  1   force =     0.00000211    0.00001477    0.00003221
     atom    3 type  1   force =     0.00002781    0.00001475    0.00003958
     atom    4 type  1   force =     0.00002304   -0.00004755    0.00001102
     atom    5 type  1   force =    -0.00000095    0.00001068   -0.00001263
     atom    6 type  1   force =     0.00002594   -0.00000099   -0.00003545
     atom    7 type  1   force =     0.00000804   -0.00001657   -0.00003494
     atom    8 type  1   force =     0.00002169   -0.00002843    0.00004746
     atom    9 type  1   force =    -0.00000411   -0.00006296    0.00003758
     atom   10 type  1   force =     0.00000846   -0.00004471   -0.00000033
     atom   11 type  1   force =     0.00000446   -0.00007961    0.00002654
     atom   12 type  1   force =    -0.00000709    0.00003418    0.00001385
     atom   13 type  1   force =    -0.00000611   -0.00003061   -0.00000354
     atom   14 type  1   force =     0.00002506    0.00002023   -0.00002158
     atom   15 type  1   force =     0.00004517    0.00000173    0.00003139
     atom   16 type  1   force =     0.00001677   -0.00005163   -0.00000386
     atom   17 type  1   force =     0.00002494    0.00002064    0.00001933
     atom   18 type  1   force =     0.00000724   -0.00002167    0.00000086
     atom   19 type  1   force =     0.00000711   -0.00003476    0.00004880
     atom   20 type  1   force =    -0.00000598   -0.00000594    0.00003174
     atom   21 type  1   force =     0.00002087   -0.00002525    0.00002488
     atom   22 type  1   force =    -0.00000104    0.00001289    0.00003119
     atom   23 type  1   force =     0.00002778   -0.00002020   -0.00001260
     atom   24 type  1   force =    -0.00001856   -0.00003810    0.00001037
     atom   25 type  1   force =     0.00002305   -0.00002051   -0.00003228
     atom   26 type  1   force =     0.00003828    0.00000284   -0.00001115
     atom   27 type  1   force =     0.00001231    0.00003053   -0.00002575
     atom   28 type  1   force =    -0.00001149   -0.00006147    0.00004119
     atom   29 type  1   force =     0.00001353   -0.00006136    0.00004761
     atom   30 type  1   force =    -0.00000807   -0.00003531    0.00000972
     atom   31 type  1   force =    -0.00002626    0.00001776    0.00000824
     atom   32 type  1   force =     0.00002151   -0.00003145    0.00004669
     atom   33 type  1   force =    -0.00000338   -0.00005213   -0.00001994
     atom   34 type  1   force =    -0.00000084   -0.00004429    0.00001840
     atom   35 type  1   force =     0.00002896   -0.00004396    0.00007045
     atom   36 type  1   force =     0.00001961   -0.00001286    0.00001655
     atom   37 type  1   force =    -0.00001320   -0.00000700    0.00003344
     atom   38 type  1   force =     0.00002671   -0.00002438   -0.00001328
     atom   39 type  1   force =     0.00002841   -0.00003967    0.00003534
     atom   40 type  1   force =     0.00003143    0.00000330    0.00002846
     atom   41 type  1   force =    -0.00002956   -0.00000798   -0.00001129
     atom   42 type  1   force =     0.00002975    0.00002953    0.00002129
     atom   43 type  1   force =    -0.00001149    0.00000402   -0.00003003
     atom   44 type  1   force =     0.00001123    0.00001608   -0.00003010
     atom   45 type  1   force =    -0.00001094    0.00002758   -0.00000150
     atom   46 type  1   force =    -0.00001172    0.00002530    0.00001679
     atom   47 type  1   force =    -0.00000896   -0.00005455   -0.00000815
     atom   48 type  1   force =    -0.00002136   -0.00000927    0.00002448
     atom   49 type  1   force =     0.00001757    0.00000905   -0.00003316
     atom   50 type  1   force =    -0.00000998   -0.00005040    0.00002954
     atom   51 type  1   force =     0.00002589   -0.00001305    0.00002433
     atom   52 type  1   force =    -0.00000689   -0.00001701    0.00001697
     atom   53 type  1   force =     0.00002485   -0.00004977    0.00004618
     atom   54 type  1   force =     0.00001598   -0.00004698    0.00003608
     atom   55 type  1   force =     0.00003830   -0.00002077   -0.00000011
     atom   56 type  2   force =     0.00000088   -0.00000093   -0.00000140

     Total force =     0.004405     Total SCF correction =     0.000357
     Energy error            =      4.6E-05 Ry
     Gradient error          =      9.5E-04 Ry/Bohr

     bfgs converged in  46 scf cycles and  45 bfgs steps
     (criteria: energy <  1.0E-04 Ry, force <  1.0E-03 Ry/Bohr)

     End of BFGS Geometry Optimization

     Final energy             =  -11591.9701898335 Ry

     File ./out/calc.bfgs deleted, as requested
Begin final coordinates

ATOMIC_POSITIONS (angstrom)
Pt              -2.3836059112       -2.6385888002       -4.2556495801
Pt               1.7827501010       -3.8720659553       -0.9558490017
Pt              -0.8088528458       -4.2305041017       -0.2669282595
Pt              -1.1478686256       -0.5728263228       -2.4423461954
Pt              -2.6744524759        1.7745265079       -2.8936152774
Pt              -0.4094452814        1.4850032481       -4.4359794986
Pt              -2.4323868937       -0.0463341491       -4.9741498297
Pt              -4.4215427148        0.1985744443        1.7589155841
Pt               0.6716251862       -0.8574792791        1.6478806157
Pt               0.8465300050        1.1967845370       -1.6409484153
Pt               2.5466738350        0.2917112370        0.1578814586
Pt               1.0471219279       -3.6774559515        1.6581477346
Pt              -3.7929026735       -0.8220043724       -2.7535944115
Pt              -2.4094663586       -2.6644673114        4.5823839647
Pt              -3.9795957462       -2.3505562194        2.4246903552
Pt               4.8874341074        0.5306810766       -0.9745322682
Pt               2.5848825931        3.8937751892        0.8818318342
Pt               4.2979139501       -0.6291126283       -3.3082772637
Pt              -1.7440743220        1.0317445369       -0.4061776717
Pt              -4.1827614943        2.7797412748        1.1976550922
Pt              -2.8422139051       -3.2886425263       -1.8443144272
Pt               0.6210620501        4.3624007966        2.5909959227
Pt              -0.0067191906       -1.3930082111       -4.7674889372
Pt               4.4971638424       -0.9899806819        1.3201333027
Pt               3.6796059327        1.9265638632       -2.8707923226
Pt               4.5377974355        3.2344879552       -0.7330628067
Pt              -0.4946987427        3.4200000277       -2.5295292029
Pt               0.4075677255        1.7540262402        1.0169404332
Pt              -1.7727292081        0.1173549941        1.9909177001
Pt               3.8507780843        0.3247337675        3.5612019744
Pt               3.6014605503       -3.4943358995        0.9691266443
Pt              -4.1844996756       -1.6401539319       -0.1833634521
Pt              -1.3526990419       -0.1749931231        4.5661198961
Pt              -3.0226380100        1.8480845738        3.5294690548
Pt              -1.4673364434       -1.5939206973        0.0536446364
Pt               2.1454739857       -2.1865884304       -3.3254805943
Pt              -4.3045419894        0.9581480180       -0.8047831450
Pt               1.9475248289        0.3534652727       -4.0933091299
Pt               4.3118195953        1.7741270775        1.4251716733
Pt              -3.4439827272       -4.1126209253        0.5392571800
Pt               2.6876746121       -2.0397847707        3.0405790284
Pt              -1.5257887651       -3.4245103889        2.1906809618
Pt               0.1609875294       -2.4363775259        3.9246170856
Pt               2.0511260441        3.6600075046       -1.6794981472
Pt               0.0180126348        4.2193796917       -0.0131904184
Pt              -2.4728784999        3.4819343490       -0.7517522905
Pt               1.2681168083        0.0169401642        4.1274355325
Pt              -1.8130452673        3.5899650579        1.8912585026
Pt               1.6577978469        3.0380769584       -4.2166178872
Pt              -0.3605248411        2.1485160839        3.7384984351
Pt              -0.2037013681       -3.3034618191       -2.7106753396
Pt               3.9287166543       -2.0584024442       -1.1639635060
Pt               1.0446036219       -1.4052994218       -1.0848955910
Pt               2.2262857609        2.3269475018        3.0887075880
Pt              -4.0008267848       -0.5372800237        4.3182900151
H               -1.2535850657       -0.9068988169       -5.9707299259
End final coordinates



     Writing all to output data dir ./out/calc.save/ :
     XML data file, charge density, pseudopotentials, collected wavefunctions
 
     init_run     :     21.70s CPU     23.12s WALL (       1 calls)
     electrons    : 378662.95s CPU 386077.54s WALL (      47 calls)
     update_pot   :    153.86s CPU    172.80s WALL (      45 calls)
     forces       :    463.63s CPU    499.36s WALL (      47 calls)

     Called by init_run:
     wfcinit      :     12.57s CPU     13.29s WALL (       1 calls)
     wfcinit:atom :      0.08s CPU      0.11s WALL (       2 calls)
     wfcinit:wfcr :     12.05s CPU     12.68s WALL (       2 calls)
     potinit      :      7.87s CPU     10.12s WALL (       2 calls)
     hinit0       :      1.27s CPU      1.30s WALL (       1 calls)

     Called by electrons:
     c_bands      : 363903.66s CPU 370037.27s WALL (    1256 calls)
     sum_band     :   9094.16s CPU   9573.26s WALL (    1256 calls)
     v_of_rho     :   4116.31s CPU   4621.65s WALL (    1269 calls)
     v_h          :     60.36s CPU     65.53s WALL (    1269 calls)
     v_xc         :   4204.96s CPU   4724.02s WALL (    1316 calls)
     newd         :   1444.67s CPU   1645.88s WALL (    1269 calls)
     mix_rho      :    168.42s CPU    179.00s WALL (    1256 calls)

     Called by c_bands:
     init_us_2    :    373.80s CPU    377.71s WALL (    5120 calls)
     rcgdiagg     : 351743.10s CPU 357283.27s WALL (    2600 calls)
     wfcrot       :  11848.68s CPU  12433.52s WALL (    2440 calls)

     Called by sum_band:
     sum_band:wei :      1.97s CPU      1.99s WALL (    1256 calls)
     sum_band:loo :   6728.07s CPU   6992.85s WALL (    1256 calls)
     sum_band:buf :     68.84s CPU     69.65s WALL (    2512 calls)
     sum_band:ini :    183.14s CPU    184.99s WALL (    2512 calls)
     sum_band:cal :   1013.99s CPU   1021.40s WALL (    2512 calls)
     sum_band:bec :      5.75s CPU      5.80s WALL (    2512 calls)
     addusdens    :   2260.65s CPU   2456.06s WALL (    1256 calls)
                                        0.00s GPU  (    1256 calls)
     addusd:skk   :     55.66s CPU     99.77s WALL (    2512 calls)
                                        0.00s GPU  (    2512 calls)

     Called by *cgdiagg:
     h_psi        : 161967.14s CPU 166318.24s WALL ( 3399839 calls)
     s_psi        : 110601.94s CPU 111510.37s WALL ( 6797238 calls)

     Called by h_psi:
     h_psi:calbec :  59916.33s CPU  60407.19s WALL ( 3399839 calls)
     vloc_psi     :  45865.34s CPU  49280.63s WALL ( 3399839 calls)
     add_vuspsi   :  56003.87s CPU  56454.45s WALL ( 3399839 calls)
     hs_1psi      : 207500.19s CPU 211777.26s WALL ( 3397399 calls)
     s_1psi       : 112744.09s CPU 113697.27s WALL ( 3397399 calls)

     General routines
     calbec       : 118669.15s CPU 119682.06s WALL ( 6800126 calls)
     fft          :   2319.60s CPU   2700.53s WALL (   89330 calls)
     ffts         :     31.25s CPU     36.80s WALL (    3794 calls)
     fftw         :  28855.73s CPU  32239.28s WALL ( 8753942 calls)
     interpolate  :     99.11s CPU    113.84s WALL (    2538 calls)
 
     Parallel routines
 
     PWSCF        :   4d 9h23m CPU   4d11h28m WALL

 
   This run was terminated on:   7:50:21  29Jul2025            

=------------------------------------------------------------------------------=
   JOB DONE.
=------------------------------------------------------------------------------=
