
     Program PWSCF v.7.3.1 starts on 28Apr2025 at 11: 1:24 

     This program is part of the open-source Quantum ESPRESSO suite
     for quantum simulation of materials; please cite
         "P. Giannozzi et al., J. Phys.:Condens. Matter 21 395502 (2009);
         "P. Giannozzi et al., J. Phys.:Condens. Matter 29 465901 (2017);
         "P. Giannozzi et al., J. Chem. Phys. 152 154105 (2020);
          URL http://www.quantum-espresso.org", 
     in publications or presentations arising from this work. More details at
     http://www.quantum-espresso.org/quote

     Parallel version (MPI), running on    36 processors

     MPI processes distributed on     1 nodes
     144935 MiB available memory on the printing compute node when the environment starts
 
     Reading input from espresso.pwi
Warning: card   &CELL ignored
Warning: card      CELL_DOFREE = 'IBRAV' ignored
Warning: card / ignored

     Current dimensions of program PWSCF are:
     Max number of different atomic species (ntypx) = 10
     Max number of k-points (npk) =  40000
     Max angular momentum in pseudopotentials (lmaxx) =  4

     IMPORTANT: XC functional enforced from input :
     Exchange-correlation= RVV10
                           (   1   4  13   4  26   0   0)
     Any further DFT definition will be discarded
     Please, verify this is what you really want


     gamma-point specific algorithms are used
     Message from routine setup:
     using ibrav=0 with symmetry is DISCOURAGED, use correct ibrav instead
 
     R & G space division:  proc/nbgrp/npool/nimage =      36
     Subspace diagonalization in iterative solution of the eigenvalue problem:
     one sub-group per band group will be used
     scalapack distributed-memory algorithm (size of sub-group:  6*  6 procs)

 
     Parallelization info
     --------------------
     sticks:   dense  smooth     PW     G-vecs:    dense   smooth      PW
     Min        2366    1183    295               520102   183878   22972
     Max        2368    1188    298               520116   183884   22980
     Sum       85225   42641  10669             18723953  6619737  827137
 
     Using Slab Decomposition
 

     Title: 
     calc                                                                       


     bravais-lattice index     =            0
     lattice parameter (alat)  =      47.2432  a.u.
     unit-cell volume          =  105442.7265 (a.u.)^3
     number of atoms/cell      =          117
     number of atomic types    =            2
     number of electrons       =      1857.00
     number of Kohn-Sham states=         1115
     kinetic-energy cutoff     =      60.0000  Ry
     charge density cutoff     =     480.0000  Ry
     scf convergence threshold =      1.0E-06
     mixing beta               =       0.1000
     number of iterations used =            8  local-TF  mixing
     energy convergence thresh.=      1.0E-04
     force convergence thresh. =      1.0E-03
     Exchange-correlation= RVV10
                           (   1   4  13   4  26   0   0)
     nstep                     =        10000


     celldm(1)=  47.243153  celldm(2)=   0.000000  celldm(3)=   0.000000
     celldm(4)=   0.000000  celldm(5)=   0.000000  celldm(6)=   0.000000

     crystal axes: (cart. coord. in units of alat)
               a(1) = (   1.000000   0.000000   0.000000 )  
               a(2) = (   0.000000   1.000000   0.000000 )  
               a(3) = (   0.000000   0.000000   1.000000 )  

     reciprocal axes: (cart. coord. in units 2 pi/alat)
               b(1) = (  1.000000  0.000000  0.000000 )  
               b(2) = (  0.000000  1.000000  0.000000 )  
               b(3) = (  0.000000  0.000000  1.000000 )  


     PseudoPot. # 1 for Pt read from file:
     /home/james/work/espresso/SSSP_1.3.0_PBE_efficiency/pt_pbe_v1.4.uspp.F.UPF
     MD5 check sum: f09d6de1a584b5a045c4fc126da2d0c4
     Pseudo is Ultrasoft + core correction, Zval = 16.0
     Generated by new atomic code, or converted to UPF format
     Using radial grid of  985 points,  6 beta functions with: 
                l(1) =   0
                l(2) =   0
                l(3) =   1
                l(4) =   1
                l(5) =   2
                l(6) =   2
     Q(r) pseudized with  8 coefficients,  rinner =    1.300   1.300   1.300
                                                       1.300   1.300

     PseudoPot. # 2 for H  read from file:
     /home/james/work/espresso/SSSP_1.3.0_PBE_efficiency/H.pbe-rrkjus_psl.1.0.0.UPF
     MD5 check sum: f52b6d4d1c606e5624b1dc7b2218f220
     Pseudo is Ultrasoft, Zval =  1.0
     Generated using "atomic" code by A. Dal Corso  v.5.1
     Using radial grid of  929 points,  2 beta functions with: 
                l(1) =   0
                l(2) =   0
     Q(r) pseudized with 0 coefficients 


     atomic species   valence    mass     pseudopotential
     Pt               16.00   195.08400     Pt( 1.00)
     H                 1.00     1.00800     H ( 1.00)

     Starting magnetic structure 
     atomic species   magnetization
     Pt              0.010
     H               0.020

      8 Sym. Ops. (no inversion) found


                                    s                        frac. trans.

      isym =  1     identity                                     

 cryst.   s( 1) = (     1          0          0      )
                  (     0          1          0      )
                  (     0          0          1      )

 cart.    s( 1) = (  1.0000000  0.0000000  0.0000000 )
                  (  0.0000000  1.0000000  0.0000000 )
                  (  0.0000000  0.0000000  1.0000000 )


      isym =  2     180 deg rotation - cart. axis [1,0,0]        

 cryst.   s( 2) = (     1          0          0      )
                  (     0         -1          0      )
                  (     0          0         -1      )

 cart.    s( 2) = (  1.0000000  0.0000000  0.0000000 )
                  (  0.0000000 -1.0000000  0.0000000 )
                  (  0.0000000  0.0000000 -1.0000000 )


      isym =  3      90 deg rotation - cart. axis [-1,0,0]       

 cryst.   s( 3) = (     1          0          0      )
                  (     0          0         -1      )
                  (     0          1          0      )

 cart.    s( 3) = (  1.0000000  0.0000000  0.0000000 )
                  (  0.0000000  0.0000000  1.0000000 )
                  (  0.0000000 -1.0000000  0.0000000 )


      isym =  4      90 deg rotation - cart. axis [1,0,0]        

 cryst.   s( 4) = (     1          0          0      )
                  (     0          0          1      )
                  (     0         -1          0      )

 cart.    s( 4) = (  1.0000000  0.0000000  0.0000000 )
                  (  0.0000000  0.0000000 -1.0000000 )
                  (  0.0000000  1.0000000  0.0000000 )


      isym =  5     inv. 180 deg rotation - cart. axis [0,0,1]   

 cryst.   s( 5) = (     1          0          0      )
                  (     0          1          0      )
                  (     0          0         -1      )

 cart.    s( 5) = (  1.0000000  0.0000000  0.0000000 )
                  (  0.0000000  1.0000000  0.0000000 )
                  (  0.0000000  0.0000000 -1.0000000 )


      isym =  6     inv. 180 deg rotation - cart. axis [0,1,0]   

 cryst.   s( 6) = (     1          0          0      )
                  (     0         -1          0      )
                  (     0          0          1      )

 cart.    s( 6) = (  1.0000000  0.0000000  0.0000000 )
                  (  0.0000000 -1.0000000  0.0000000 )
                  (  0.0000000  0.0000000  1.0000000 )


      isym =  7     inv. 180 deg rotation - cart. axis [0,1,1]   

 cryst.   s( 7) = (     1          0          0      )
                  (     0          0         -1      )
                  (     0         -1          0      )

 cart.    s( 7) = (  1.0000000  0.0000000  0.0000000 )
                  (  0.0000000  0.0000000 -1.0000000 )
                  (  0.0000000 -1.0000000  0.0000000 )


      isym =  8     inv. 180 deg rotation - cart. axis [0,1,-1]  

 cryst.   s( 8) = (     1          0          0      )
                  (     0          0          1      )
                  (     0          1          0      )

 cart.    s( 8) = (  1.0000000  0.0000000  0.0000000 )
                  (  0.0000000  0.0000000  1.0000000 )
                  (  0.0000000  1.0000000  0.0000000 )


   Cartesian axes

     site n.     atom                  positions (alat units)
         1        Pt     tau(   1) = (  -0.2317675  -0.1538076   0.0000000  )
         2        Pt     tau(   2) = (  -0.1538076  -0.2317675   0.0000000  )
         3        Pt     tau(   3) = (  -0.1617552  -0.1617552  -0.0847262  )
         4        Pt     tau(   4) = (  -0.1617552  -0.1617552   0.0847262  )
         5        Pt     tau(   5) = (  -0.2317675   0.0000000  -0.1538076  )
         6        Pt     tau(   6) = (  -0.1617552  -0.0847262  -0.1617552  )
         7        Pt     tau(   7) = (  -0.1538076   0.0000000  -0.2317675  )
         8        Pt     tau(   8) = (  -0.2338884  -0.0780549  -0.0780549  )
         9        Pt     tau(   9) = (  -0.2370085   0.0000000   0.0000000  )
        10        Pt     tau(  10) = (  -0.1554443  -0.0788784   0.0000000  )
        11        Pt     tau(  11) = (  -0.1554443   0.0000000  -0.0788784  )
        12        Pt     tau(  12) = (  -0.2338884  -0.0780549   0.0780549  )
        13        Pt     tau(  13) = (  -0.2317675   0.0000000   0.1538076  )
        14        Pt     tau(  14) = (  -0.1617552  -0.0847262   0.1617552  )
        15        Pt     tau(  15) = (  -0.1554443   0.0000000   0.0788784  )
        16        Pt     tau(  16) = (  -0.1538076   0.0000000   0.2317675  )
        17        Pt     tau(  17) = (  -0.1617552   0.0847262  -0.1617552  )
        18        Pt     tau(  18) = (  -0.2338884   0.0780549  -0.0780549  )
        19        Pt     tau(  19) = (  -0.2317675   0.1538076   0.0000000  )
        20        Pt     tau(  20) = (  -0.1554443   0.0788784   0.0000000  )
        21        Pt     tau(  21) = (  -0.1617552   0.1617552  -0.0847262  )
        22        Pt     tau(  22) = (  -0.2338884   0.0780549   0.0780549  )
        23        Pt     tau(  23) = (  -0.1617552   0.0847262   0.1617552  )
        24        Pt     tau(  24) = (  -0.1617552   0.1617552   0.0847262  )
        25        Pt     tau(  25) = (  -0.1538076   0.2317675   0.0000000  )
        26        Pt     tau(  26) = (  -0.0847262  -0.1617552  -0.1617552  )
        27        Pt     tau(  27) = (   0.0000000  -0.2317675  -0.1538076  )
        28        Pt     tau(  28) = (   0.0000000  -0.1538076  -0.2317675  )
        29        Pt     tau(  29) = (  -0.0780549  -0.2338884  -0.0780549  )
        30        Pt     tau(  30) = (  -0.0788784  -0.1554443   0.0000000  )
        31        Pt     tau(  31) = (   0.0000000  -0.2370085   0.0000000  )
        32        Pt     tau(  32) = (   0.0000000  -0.1554443  -0.0788784  )
        33        Pt     tau(  33) = (  -0.0780549  -0.2338884   0.0780549  )
        34        Pt     tau(  34) = (  -0.0847262  -0.1617552   0.1617552  )
        35        Pt     tau(  35) = (   0.0000000  -0.2317675   0.1538076  )
        36        Pt     tau(  36) = (   0.0000000  -0.1554443   0.0788784  )
        37        Pt     tau(  37) = (   0.0000000  -0.1538076   0.2317675  )
        38        Pt     tau(  38) = (  -0.0780549  -0.0780549  -0.2338884  )
        39        Pt     tau(  39) = (  -0.0788784   0.0000000  -0.1554443  )
        40        Pt     tau(  40) = (   0.0000000  -0.0788784  -0.1554443  )
        41        Pt     tau(  41) = (   0.0000000   0.0000000  -0.2370085  )
        42        Pt     tau(  42) = (  -0.0808740  -0.0808740  -0.0808740  )
        43        Pt     tau(  43) = (  -0.0786873   0.0000000   0.0000000  )
        44        Pt     tau(  44) = (   0.0000000  -0.0786873   0.0000000  )
        45        Pt     tau(  45) = (   0.0000000   0.0000000  -0.0786873  )
        46        Pt     tau(  46) = (  -0.0808740  -0.0808740   0.0808740  )
        47        Pt     tau(  47) = (  -0.0788784   0.0000000   0.1554443  )
        48        Pt     tau(  48) = (   0.0000000  -0.0788784   0.1554443  )
        49        Pt     tau(  49) = (   0.0000000   0.0000000   0.0786873  )
        50        Pt     tau(  50) = (  -0.0780549  -0.0780549   0.2338884  )
        51        Pt     tau(  51) = (   0.0000000   0.0000000   0.2370085  )
        52        Pt     tau(  52) = (  -0.0780549   0.0780549  -0.2338884  )
        53        Pt     tau(  53) = (  -0.0847262   0.1617552  -0.1617552  )
        54        Pt     tau(  54) = (   0.0000000   0.0788784  -0.1554443  )
        55        Pt     tau(  55) = (   0.0000000   0.1538076  -0.2317675  )
        56        Pt     tau(  56) = (  -0.0808740   0.0808740  -0.0808740  )
        57        Pt     tau(  57) = (  -0.0788784   0.1554443   0.0000000  )
        58        Pt     tau(  58) = (   0.0000000   0.0786873   0.0000000  )
        59        Pt     tau(  59) = (   0.0000000   0.1554443  -0.0788784  )
        60        Pt     tau(  60) = (  -0.0808740   0.0808740   0.0808740  )
        61        Pt     tau(  61) = (  -0.0847262   0.1617552   0.1617552  )
        62        Pt     tau(  62) = (   0.0000000   0.0788784   0.1554443  )
        63        Pt     tau(  63) = (   0.0000000   0.1554443   0.0788784  )
        64        Pt     tau(  64) = (  -0.0780549   0.0780549   0.2338884  )
        65        Pt     tau(  65) = (   0.0000000   0.1538076   0.2317675  )
        66        Pt     tau(  66) = (   0.0000000   0.2317675  -0.1538076  )
        67        Pt     tau(  67) = (  -0.0780549   0.2338884  -0.0780549  )
        68        Pt     tau(  68) = (   0.0000000   0.2370085   0.0000000  )
        69        Pt     tau(  69) = (  -0.0780549   0.2338884   0.0780549  )
        70        Pt     tau(  70) = (   0.0000000   0.2317675   0.1538076  )
        71        Pt     tau(  71) = (   0.0847262  -0.1617552  -0.1617552  )
        72        Pt     tau(  72) = (   0.0780549  -0.2338884  -0.0780549  )
        73        Pt     tau(  73) = (   0.0788784  -0.1554443   0.0000000  )
        74        Pt     tau(  74) = (   0.1538076  -0.2317675   0.0000000  )
        75        Pt     tau(  75) = (   0.1617552  -0.1617552  -0.0847262  )
        76        Pt     tau(  76) = (   0.0780549  -0.2338884   0.0780549  )
        77        Pt     tau(  77) = (   0.0847262  -0.1617552   0.1617552  )
        78        Pt     tau(  78) = (   0.1617552  -0.1617552   0.0847262  )
        79        Pt     tau(  79) = (   0.0780549  -0.0780549  -0.2338884  )
        80        Pt     tau(  80) = (   0.0788784   0.0000000  -0.1554443  )
        81        Pt     tau(  81) = (   0.1617552  -0.0847262  -0.1617552  )
        82        Pt     tau(  82) = (   0.1538076   0.0000000  -0.2317675  )
        83        Pt     tau(  83) = (   0.0808740  -0.0808740  -0.0808740  )
        84        Pt     tau(  84) = (   0.0786873   0.0000000   0.0000000  )
        85        Pt     tau(  85) = (   0.1554443  -0.0788784   0.0000000  )
        86        Pt     tau(  86) = (   0.1554443   0.0000000  -0.0788784  )
        87        Pt     tau(  87) = (   0.0808740  -0.0808740   0.0808740  )
        88        Pt     tau(  88) = (   0.0788784   0.0000000   0.1554443  )
        89        Pt     tau(  89) = (   0.1617552  -0.0847262   0.1617552  )
        90        Pt     tau(  90) = (   0.1554443   0.0000000   0.0788784  )
        91        Pt     tau(  91) = (   0.0780549  -0.0780549   0.2338884  )
        92        Pt     tau(  92) = (   0.1538076   0.0000000   0.2317675  )
        93        Pt     tau(  93) = (   0.0780549   0.0780549  -0.2338884  )
        94        Pt     tau(  94) = (   0.0847262   0.1617552  -0.1617552  )
        95        Pt     tau(  95) = (   0.1617552   0.0847262  -0.1617552  )
        96        Pt     tau(  96) = (   0.0808740   0.0808740  -0.0808740  )
        97        Pt     tau(  97) = (   0.0788784   0.1554443   0.0000000  )
        98        Pt     tau(  98) = (   0.1554443   0.0788784   0.0000000  )
        99        Pt     tau(  99) = (   0.1617552   0.1617552  -0.0847262  )
       100        Pt     tau( 100) = (   0.0808740   0.0808740   0.0808740  )
       101        Pt     tau( 101) = (   0.0847262   0.1617552   0.1617552  )
       102        Pt     tau( 102) = (   0.1617552   0.0847262   0.1617552  )
       103        Pt     tau( 103) = (   0.1617552   0.1617552   0.0847262  )
       104        Pt     tau( 104) = (   0.0780549   0.0780549   0.2338884  )
       105        Pt     tau( 105) = (   0.0780549   0.2338884  -0.0780549  )
       106        Pt     tau( 106) = (   0.1538076   0.2317675   0.0000000  )
       107        Pt     tau( 107) = (   0.0780549   0.2338884   0.0780549  )
       108        Pt     tau( 108) = (   0.2317675  -0.1538076   0.0000000  )
       109        Pt     tau( 109) = (   0.2317675   0.0000000  -0.1538076  )
       110        Pt     tau( 110) = (   0.2338884  -0.0780549  -0.0780549  )
       111        Pt     tau( 111) = (   0.2370085   0.0000000   0.0000000  )
       112        Pt     tau( 112) = (   0.2338884  -0.0780549   0.0780549  )
       113        Pt     tau( 113) = (   0.2317675   0.0000000   0.1538076  )
       114        Pt     tau( 114) = (   0.2338884   0.0780549  -0.0780549  )
       115        Pt     tau( 115) = (   0.2317675   0.1538076   0.0000000  )
       116        Pt     tau( 116) = (   0.2338884   0.0780549   0.0780549  )
       117        H      tau( 117) = (  -0.3090085   0.0000000   0.0000000  )

   Crystallographic axes

     site n.     atom                  positions (cryst. coord.)
         1        Pt     tau(   1) = ( -0.2317675 -0.1538076  0.0000000  )
         2        Pt     tau(   2) = ( -0.1538076 -0.2317675  0.0000000  )
         3        Pt     tau(   3) = ( -0.1617552 -0.1617552 -0.0847262  )
         4        Pt     tau(   4) = ( -0.1617552 -0.1617552  0.0847262  )
         5        Pt     tau(   5) = ( -0.2317675  0.0000000 -0.1538076  )
         6        Pt     tau(   6) = ( -0.1617552 -0.0847262 -0.1617552  )
         7        Pt     tau(   7) = ( -0.1538076  0.0000000 -0.2317675  )
         8        Pt     tau(   8) = ( -0.2338884 -0.0780549 -0.0780549  )
         9        Pt     tau(   9) = ( -0.2370085  0.0000000  0.0000000  )
        10        Pt     tau(  10) = ( -0.1554443 -0.0788784  0.0000000  )
        11        Pt     tau(  11) = ( -0.1554443  0.0000000 -0.0788784  )
        12        Pt     tau(  12) = ( -0.2338884 -0.0780549  0.0780549  )
        13        Pt     tau(  13) = ( -0.2317675  0.0000000  0.1538076  )
        14        Pt     tau(  14) = ( -0.1617552 -0.0847262  0.1617552  )
        15        Pt     tau(  15) = ( -0.1554443  0.0000000  0.0788784  )
        16        Pt     tau(  16) = ( -0.1538076  0.0000000  0.2317675  )
        17        Pt     tau(  17) = ( -0.1617552  0.0847262 -0.1617552  )
        18        Pt     tau(  18) = ( -0.2338884  0.0780549 -0.0780549  )
        19        Pt     tau(  19) = ( -0.2317675  0.1538076  0.0000000  )
        20        Pt     tau(  20) = ( -0.1554443  0.0788784  0.0000000  )
        21        Pt     tau(  21) = ( -0.1617552  0.1617552 -0.0847262  )
        22        Pt     tau(  22) = ( -0.2338884  0.0780549  0.0780549  )
        23        Pt     tau(  23) = ( -0.1617552  0.0847262  0.1617552  )
        24        Pt     tau(  24) = ( -0.1617552  0.1617552  0.0847262  )
        25        Pt     tau(  25) = ( -0.1538076  0.2317675  0.0000000  )
        26        Pt     tau(  26) = ( -0.0847262 -0.1617552 -0.1617552  )
        27        Pt     tau(  27) = (  0.0000000 -0.2317675 -0.1538076  )
        28        Pt     tau(  28) = (  0.0000000 -0.1538076 -0.2317675  )
        29        Pt     tau(  29) = ( -0.0780549 -0.2338884 -0.0780549  )
        30        Pt     tau(  30) = ( -0.0788784 -0.1554443  0.0000000  )
        31        Pt     tau(  31) = (  0.0000000 -0.2370085  0.0000000  )
        32        Pt     tau(  32) = (  0.0000000 -0.1554443 -0.0788784  )
        33        Pt     tau(  33) = ( -0.0780549 -0.2338884  0.0780549  )
        34        Pt     tau(  34) = ( -0.0847262 -0.1617552  0.1617552  )
        35        Pt     tau(  35) = (  0.0000000 -0.2317675  0.1538076  )
        36        Pt     tau(  36) = (  0.0000000 -0.1554443  0.0788784  )
        37        Pt     tau(  37) = (  0.0000000 -0.1538076  0.2317675  )
        38        Pt     tau(  38) = ( -0.0780549 -0.0780549 -0.2338884  )
        39        Pt     tau(  39) = ( -0.0788784  0.0000000 -0.1554443  )
        40        Pt     tau(  40) = (  0.0000000 -0.0788784 -0.1554443  )
        41        Pt     tau(  41) = (  0.0000000  0.0000000 -0.2370085  )
        42        Pt     tau(  42) = ( -0.0808740 -0.0808740 -0.0808740  )
        43        Pt     tau(  43) = ( -0.0786873  0.0000000  0.0000000  )
        44        Pt     tau(  44) = (  0.0000000 -0.0786873  0.0000000  )
        45        Pt     tau(  45) = (  0.0000000  0.0000000 -0.0786873  )
        46        Pt     tau(  46) = ( -0.0808740 -0.0808740  0.0808740  )
        47        Pt     tau(  47) = ( -0.0788784  0.0000000  0.1554443  )
        48        Pt     tau(  48) = (  0.0000000 -0.0788784  0.1554443  )
        49        Pt     tau(  49) = (  0.0000000  0.0000000  0.0786873  )
        50        Pt     tau(  50) = ( -0.0780549 -0.0780549  0.2338884  )
        51        Pt     tau(  51) = (  0.0000000  0.0000000  0.2370085  )
        52        Pt     tau(  52) = ( -0.0780549  0.0780549 -0.2338884  )
        53        Pt     tau(  53) = ( -0.0847262  0.1617552 -0.1617552  )
        54        Pt     tau(  54) = (  0.0000000  0.0788784 -0.1554443  )
        55        Pt     tau(  55) = (  0.0000000  0.1538076 -0.2317675  )
        56        Pt     tau(  56) = ( -0.0808740  0.0808740 -0.0808740  )
        57        Pt     tau(  57) = ( -0.0788784  0.1554443  0.0000000  )
        58        Pt     tau(  58) = (  0.0000000  0.0786873  0.0000000  )
        59        Pt     tau(  59) = (  0.0000000  0.1554443 -0.0788784  )
        60        Pt     tau(  60) = ( -0.0808740  0.0808740  0.0808740  )
        61        Pt     tau(  61) = ( -0.0847262  0.1617552  0.1617552  )
        62        Pt     tau(  62) = (  0.0000000  0.0788784  0.1554443  )
        63        Pt     tau(  63) = (  0.0000000  0.1554443  0.0788784  )
        64        Pt     tau(  64) = ( -0.0780549  0.0780549  0.2338884  )
        65        Pt     tau(  65) = (  0.0000000  0.1538076  0.2317675  )
        66        Pt     tau(  66) = (  0.0000000  0.2317675 -0.1538076  )
        67        Pt     tau(  67) = ( -0.0780549  0.2338884 -0.0780549  )
        68        Pt     tau(  68) = (  0.0000000  0.2370085  0.0000000  )
        69        Pt     tau(  69) = ( -0.0780549  0.2338884  0.0780549  )
        70        Pt     tau(  70) = (  0.0000000  0.2317675  0.1538076  )
        71        Pt     tau(  71) = (  0.0847262 -0.1617552 -0.1617552  )
        72        Pt     tau(  72) = (  0.0780549 -0.2338884 -0.0780549  )
        73        Pt     tau(  73) = (  0.0788784 -0.1554443  0.0000000  )
        74        Pt     tau(  74) = (  0.1538076 -0.2317675  0.0000000  )
        75        Pt     tau(  75) = (  0.1617552 -0.1617552 -0.0847262  )
        76        Pt     tau(  76) = (  0.0780549 -0.2338884  0.0780549  )
        77        Pt     tau(  77) = (  0.0847262 -0.1617552  0.1617552  )
        78        Pt     tau(  78) = (  0.1617552 -0.1617552  0.0847262  )
        79        Pt     tau(  79) = (  0.0780549 -0.0780549 -0.2338884  )
        80        Pt     tau(  80) = (  0.0788784  0.0000000 -0.1554443  )
        81        Pt     tau(  81) = (  0.1617552 -0.0847262 -0.1617552  )
        82        Pt     tau(  82) = (  0.1538076  0.0000000 -0.2317675  )
        83        Pt     tau(  83) = (  0.0808740 -0.0808740 -0.0808740  )
        84        Pt     tau(  84) = (  0.0786873  0.0000000  0.0000000  )
        85        Pt     tau(  85) = (  0.1554443 -0.0788784  0.0000000  )
        86        Pt     tau(  86) = (  0.1554443  0.0000000 -0.0788784  )
        87        Pt     tau(  87) = (  0.0808740 -0.0808740  0.0808740  )
        88        Pt     tau(  88) = (  0.0788784  0.0000000  0.1554443  )
        89        Pt     tau(  89) = (  0.1617552 -0.0847262  0.1617552  )
        90        Pt     tau(  90) = (  0.1554443  0.0000000  0.0788784  )
        91        Pt     tau(  91) = (  0.0780549 -0.0780549  0.2338884  )
        92        Pt     tau(  92) = (  0.1538076  0.0000000  0.2317675  )
        93        Pt     tau(  93) = (  0.0780549  0.0780549 -0.2338884  )
        94        Pt     tau(  94) = (  0.0847262  0.1617552 -0.1617552  )
        95        Pt     tau(  95) = (  0.1617552  0.0847262 -0.1617552  )
        96        Pt     tau(  96) = (  0.0808740  0.0808740 -0.0808740  )
        97        Pt     tau(  97) = (  0.0788784  0.1554443  0.0000000  )
        98        Pt     tau(  98) = (  0.1554443  0.0788784  0.0000000  )
        99        Pt     tau(  99) = (  0.1617552  0.1617552 -0.0847262  )
       100        Pt     tau( 100) = (  0.0808740  0.0808740  0.0808740  )
       101        Pt     tau( 101) = (  0.0847262  0.1617552  0.1617552  )
       102        Pt     tau( 102) = (  0.1617552  0.0847262  0.1617552  )
       103        Pt     tau( 103) = (  0.1617552  0.1617552  0.0847262  )
       104        Pt     tau( 104) = (  0.0780549  0.0780549  0.2338884  )
       105        Pt     tau( 105) = (  0.0780549  0.2338884 -0.0780549  )
       106        Pt     tau( 106) = (  0.1538076  0.2317675  0.0000000  )
       107        Pt     tau( 107) = (  0.0780549  0.2338884  0.0780549  )
       108        Pt     tau( 108) = (  0.2317675 -0.1538076  0.0000000  )
       109        Pt     tau( 109) = (  0.2317675  0.0000000 -0.1538076  )
       110        Pt     tau( 110) = (  0.2338884 -0.0780549 -0.0780549  )
       111        Pt     tau( 111) = (  0.2370085  0.0000000  0.0000000  )
       112        Pt     tau( 112) = (  0.2338884 -0.0780549  0.0780549  )
       113        Pt     tau( 113) = (  0.2317675  0.0000000  0.1538076  )
       114        Pt     tau( 114) = (  0.2338884  0.0780549 -0.0780549  )
       115        Pt     tau( 115) = (  0.2317675  0.1538076  0.0000000  )
       116        Pt     tau( 116) = (  0.2338884  0.0780549  0.0780549  )
       117        H      tau( 117) = ( -0.3090085  0.0000000  0.0000000  )

     number of k points=     1  Gaussian smearing, width (Ry)=  0.0100
                       cart. coord. in units 2pi/alat
        k(    1) = (   0.0000000   0.0000000   0.0000000), wk =   1.0000000

                       cryst. coord.
        k(    1) = (   0.0000000   0.0000000   0.0000000), wk =   1.0000000

     Dense  grid:  9361977 G-vectors     FFT dimensions: ( 360, 360, 360)

     Smooth grid:  3309869 G-vectors     FFT dimensions: ( 240, 240, 240)

     Dynamical RAM for                 wfc:     195.54 MB

     Dynamical RAM for     wfc (w. buffer):     586.61 MB

     Dynamical RAM for           str. fact:       7.94 MB

     Dynamical RAM for           local pot:       0.00 MB

     Dynamical RAM for          nlocal pot:     366.52 MB

     Dynamical RAM for                qrad:       3.52 MB

     Dynamical RAM for          rho,v,vnew:      83.14 MB

     Dynamical RAM for               rhoin:      27.71 MB

     Dynamical RAM for            rho*nmix:     126.98 MB

     Dynamical RAM for           G-vectors:      15.58 MB

     Dynamical RAM for          h,s,v(r/c):       0.78 MB

     Dynamical RAM for          <psi|beta>:      17.78 MB

     Dynamical RAM for      wfcinit/wfcrot:     419.54 MB

     Dynamical RAM for           addusdens:    1202.36 MB

     Dynamical RAM for          addusforce:    2115.94 MB

     Estimated static dynamical RAM per process >       1.14 GB

     Estimated max dynamical RAM per process >       3.33 GB

     Estimated total dynamical RAM >     119.71 GB

     Atomic positions and unit cell read from directory:
     ./out/calc.save/
     Atomic positions from file used, from input discarded
 
     Generating pointlists ...
     new r_m :   0.0280 (alat units)  1.3226 (a.u.) for type    1
     new r_m :   0.0280 (alat units)  1.3226 (a.u.) for type    2

     The initial density is read from file :
     ./out/calc.save/charge-density


     negative rho (up, down):  1.021E+01 1.020E+01


---------------------------------------------------------------------------------
Carrying out rVV10 run using the following parameters:
Nqs =      20    Nr_points =    1024   r_max =   100.000
b_value =  6.30000    beta =  0.00901
     q_mesh =  0.00010000  0.00030000  0.00058939  0.00100810
               0.00161396  0.00249058  0.00375900  0.00559430
               0.00824984  0.01209221  0.01765183  0.02569619
               0.03733578  0.05417739  0.07854596  0.11380545
               0.16482331  0.23864234  0.34545298  0.50000000

Gradients computed in Reciprocal space

---------------------------------------------------------------------------------




     ----------------------------------------------------------------

     Non-local correlation energy =             18.771618334708645

     ----------------------------------------------------------------

     Cannot read wfcs: file not found
     Starting wfcs are 1393 randomized atomic wfcs

     total cpu time spent up to now is      111.6 secs

     Self-consistent Calculation

     iteration #  1     ecut=    60.00 Ry     beta= 0.10
     CG style diagonalization

---- Real-time Memory Report at c_bands before calling an iterative solver
             0 MiB given to the printing process from OS
             0 MiB allocation reported by mallinfo(arena+hblkhd)
         99107 MiB available memory on the node where the printing process lives
------------------
     c_bands:  2 eigenvalues not converged
     c_bands:  3 eigenvalues not converged
     ethr =  1.00E-05,  avg # of iterations = 16.4

     negative rho (up, down):  1.021E+01 1.020E+01


     ----------------------------------------------------------------

     Non-local correlation energy =             18.771624205103851

     ----------------------------------------------------------------


     total cpu time spent up to now is    12711.7 secs

     total energy              =  -24449.00761443 Ry
     estimated scf accuracy    <       1.74505001 Ry

     total magnetization       =     1.32 Bohr mag/cell
     absolute magnetization    =     1.42 Bohr mag/cell

     iteration #  2     ecut=    60.00 Ry     beta= 0.10
     CG style diagonalization

---- Real-time Memory Report at c_bands before calling an iterative solver
             0 MiB given to the printing process from OS
             0 MiB allocation reported by mallinfo(arena+hblkhd)
         96426 MiB available memory on the node where the printing process lives
------------------
     ethr =  9.40E-05,  avg # of iterations =  3.0

     negative rho (up, down):  1.021E+01 1.020E+01


     ----------------------------------------------------------------

     Non-local correlation energy =             18.771630968897583

     ----------------------------------------------------------------


     total cpu time spent up to now is    14654.3 secs

     total energy              =  -24449.00569826 Ry
     estimated scf accuracy    <       0.38004934 Ry

     total magnetization       =     1.30 Bohr mag/cell
     absolute magnetization    =     1.40 Bohr mag/cell

     iteration #  3     ecut=    60.00 Ry     beta= 0.10
     CG style diagonalization

---- Real-time Memory Report at c_bands before calling an iterative solver
             0 MiB given to the printing process from OS
             0 MiB allocation reported by mallinfo(arena+hblkhd)
         96145 MiB available memory on the node where the printing process lives
------------------
     ethr =  2.05E-05,  avg # of iterations =  3.0

     negative rho (up, down):  1.021E+01 1.020E+01


     ----------------------------------------------------------------

     Non-local correlation energy =             18.771624868123034

     ----------------------------------------------------------------


     total cpu time spent up to now is    16597.7 secs

     total energy              =  -24449.00895956 Ry
     estimated scf accuracy    <       0.00687989 Ry

     total magnetization       =     1.27 Bohr mag/cell
     absolute magnetization    =     1.37 Bohr mag/cell

     iteration #  4     ecut=    60.00 Ry     beta= 0.10
     CG style diagonalization

---- Real-time Memory Report at c_bands before calling an iterative solver
             0 MiB given to the printing process from OS
             0 MiB allocation reported by mallinfo(arena+hblkhd)
         95887 MiB available memory on the node where the printing process lives
------------------
     c_bands:  2 eigenvalues not converged
     ethr =  3.70E-07,  avg # of iterations =  3.0

     negative rho (up, down):  1.021E+01 1.020E+01


     ----------------------------------------------------------------

     Non-local correlation energy =             18.771619494014342

     ----------------------------------------------------------------


     total cpu time spent up to now is    18561.3 secs

     total energy              =  -24449.00881359 Ry
     estimated scf accuracy    <       0.00225525 Ry

     total magnetization       =     1.23 Bohr mag/cell
     absolute magnetization    =     1.33 Bohr mag/cell

     iteration #  5     ecut=    60.00 Ry     beta= 0.10
     CG style diagonalization

---- Real-time Memory Report at c_bands before calling an iterative solver
             0 MiB given to the printing process from OS
             0 MiB allocation reported by mallinfo(arena+hblkhd)
         95630 MiB available memory on the node where the printing process lives
------------------
     ethr =  1.21E-07,  avg # of iterations =  3.0

     negative rho (up, down):  1.021E+01 1.020E+01


     ----------------------------------------------------------------

     Non-local correlation energy =             18.771602028463811

     ----------------------------------------------------------------


     total cpu time spent up to now is    20514.5 secs

     total energy              =  -24449.00854292 Ry
     estimated scf accuracy    <       0.00135713 Ry

     total magnetization       =     1.19 Bohr mag/cell
     absolute magnetization    =     1.28 Bohr mag/cell

     iteration #  6     ecut=    60.00 Ry     beta= 0.10
     CG style diagonalization

---- Real-time Memory Report at c_bands before calling an iterative solver
             0 MiB given to the printing process from OS
             0 MiB allocation reported by mallinfo(arena+hblkhd)
         95322 MiB available memory on the node where the printing process lives
------------------
     ethr =  7.31E-08,  avg # of iterations =  3.0

     negative rho (up, down):  1.021E+01 1.020E+01


     ----------------------------------------------------------------

     Non-local correlation energy =             18.771586769480123

     ----------------------------------------------------------------


     total cpu time spent up to now is    22489.9 secs

     total energy              =  -24449.00851603 Ry
     estimated scf accuracy    <       0.00026709 Ry

     total magnetization       =     1.09 Bohr mag/cell
     absolute magnetization    =     1.17 Bohr mag/cell

     iteration #  7     ecut=    60.00 Ry     beta= 0.10
     CG style diagonalization

---- Real-time Memory Report at c_bands before calling an iterative solver
             0 MiB given to the printing process from OS
             0 MiB allocation reported by mallinfo(arena+hblkhd)
         95067 MiB available memory on the node where the printing process lives
------------------
     ethr =  1.44E-08,  avg # of iterations =  3.6

     negative rho (up, down):  1.021E+01 1.020E+01


     ----------------------------------------------------------------

     Non-local correlation energy =             18.771586012957961

     ----------------------------------------------------------------


     total cpu time spent up to now is    24952.1 secs

     total energy              =  -24449.00856986 Ry
     estimated scf accuracy    <       0.00008697 Ry

     total magnetization       =     0.99 Bohr mag/cell
     absolute magnetization    =     1.06 Bohr mag/cell

     iteration #  8     ecut=    60.00 Ry     beta= 0.10
     CG style diagonalization

---- Real-time Memory Report at c_bands before calling an iterative solver
             0 MiB given to the printing process from OS
             0 MiB allocation reported by mallinfo(arena+hblkhd)
         94813 MiB available memory on the node where the printing process lives
------------------
     ethr =  4.68E-09,  avg # of iterations =  3.0

     negative rho (up, down):  1.021E+01 1.020E+01


     ----------------------------------------------------------------

     Non-local correlation energy =             18.771581440679672

     ----------------------------------------------------------------


     total cpu time spent up to now is    26894.3 secs

     total energy              =  -24449.00858003 Ry
     estimated scf accuracy    <       0.00002458 Ry

     total magnetization       =     0.97 Bohr mag/cell
     absolute magnetization    =     1.05 Bohr mag/cell

     iteration #  9     ecut=    60.00 Ry     beta= 0.10
     CG style diagonalization

---- Real-time Memory Report at c_bands before calling an iterative solver
             0 MiB given to the printing process from OS
             0 MiB allocation reported by mallinfo(arena+hblkhd)
         94592 MiB available memory on the node where the printing process lives
------------------
     ethr =  1.32E-09,  avg # of iterations =  3.4

     negative rho (up, down):  1.021E+01 1.020E+01


     ----------------------------------------------------------------

     Non-local correlation energy =             18.771585599578735

     ----------------------------------------------------------------


     total cpu time spent up to now is    29254.7 secs

     total energy              =  -24449.00858545 Ry
     estimated scf accuracy    <       0.00001644 Ry

     total magnetization       =     0.89 Bohr mag/cell
     absolute magnetization    =     0.96 Bohr mag/cell

     iteration # 10     ecut=    60.00 Ry     beta= 0.10
     CG style diagonalization

---- Real-time Memory Report at c_bands before calling an iterative solver
             0 MiB given to the printing process from OS
             0 MiB allocation reported by mallinfo(arena+hblkhd)
         94318 MiB available memory on the node where the printing process lives
------------------
     ethr =  8.85E-10,  avg # of iterations =  3.0

     negative rho (up, down):  1.021E+01 1.020E+01


     ----------------------------------------------------------------

     Non-local correlation energy =             18.771588164512277

     ----------------------------------------------------------------


     total cpu time spent up to now is    31197.4 secs

     total energy              =  -24449.00859289 Ry
     estimated scf accuracy    <       0.00001200 Ry

     total magnetization       =     0.88 Bohr mag/cell
     absolute magnetization    =     0.95 Bohr mag/cell

     iteration # 11     ecut=    60.00 Ry     beta= 0.10
     CG style diagonalization

---- Real-time Memory Report at c_bands before calling an iterative solver
             0 MiB given to the printing process from OS
             0 MiB allocation reported by mallinfo(arena+hblkhd)
         94319 MiB available memory on the node where the printing process lives
------------------
     ethr =  6.46E-10,  avg # of iterations =  3.0

     negative rho (up, down):  1.020E+01 1.020E+01


     ----------------------------------------------------------------

     Non-local correlation energy =             18.771590007183182

     ----------------------------------------------------------------


     total cpu time spent up to now is    33141.3 secs

     total energy              =  -24449.00860144 Ry
     estimated scf accuracy    <       0.00000586 Ry

     total magnetization       =     0.81 Bohr mag/cell
     absolute magnetization    =     0.88 Bohr mag/cell

     iteration # 12     ecut=    60.00 Ry     beta= 0.10
     CG style diagonalization

---- Real-time Memory Report at c_bands before calling an iterative solver
             0 MiB given to the printing process from OS
             0 MiB allocation reported by mallinfo(arena+hblkhd)
         94299 MiB available memory on the node where the printing process lives
------------------
     ethr =  3.15E-10,  avg # of iterations =  3.1

     negative rho (up, down):  1.020E+01 1.020E+01


     ----------------------------------------------------------------

     Non-local correlation energy =             18.771590937241609

     ----------------------------------------------------------------


     total cpu time spent up to now is    35139.3 secs

     total energy              =  -24449.00860792 Ry
     estimated scf accuracy    <       0.00000373 Ry

     total magnetization       =     0.72 Bohr mag/cell
     absolute magnetization    =     0.78 Bohr mag/cell

     iteration # 13     ecut=    60.00 Ry     beta= 0.10
     CG style diagonalization

---- Real-time Memory Report at c_bands before calling an iterative solver
             0 MiB given to the printing process from OS
             0 MiB allocation reported by mallinfo(arena+hblkhd)
         94291 MiB available memory on the node where the printing process lives
------------------
     ethr =  2.01E-10,  avg # of iterations =  3.1

     negative rho (up, down):  1.020E+01 1.020E+01


     ----------------------------------------------------------------

     Non-local correlation energy =             18.771590092880540

     ----------------------------------------------------------------


     total cpu time spent up to now is    37197.4 secs

     total energy              =  -24449.00861114 Ry
     estimated scf accuracy    <       0.00000243 Ry

     total magnetization       =     0.66 Bohr mag/cell
     absolute magnetization    =     0.72 Bohr mag/cell

     iteration # 14     ecut=    60.00 Ry     beta= 0.10
     CG style diagonalization

---- Real-time Memory Report at c_bands before calling an iterative solver
             0 MiB given to the printing process from OS
             0 MiB allocation reported by mallinfo(arena+hblkhd)
         94316 MiB available memory on the node where the printing process lives
------------------
     ethr =  1.31E-10,  avg # of iterations =  3.0

     negative rho (up, down):  1.020E+01 1.020E+01


     ----------------------------------------------------------------

     Non-local correlation energy =             18.771586199981638

     ----------------------------------------------------------------


     total cpu time spent up to now is    39139.9 secs

     total energy              =  -24449.00861489 Ry
     estimated scf accuracy    <       0.00000202 Ry

     total magnetization       =     0.63 Bohr mag/cell
     absolute magnetization    =     0.68 Bohr mag/cell

     iteration # 15     ecut=    60.00 Ry     beta= 0.10
     CG style diagonalization

---- Real-time Memory Report at c_bands before calling an iterative solver
             0 MiB given to the printing process from OS
             0 MiB allocation reported by mallinfo(arena+hblkhd)
         94330 MiB available memory on the node where the printing process lives
------------------
     ethr =  1.09E-10,  avg # of iterations =  3.6

     negative rho (up, down):  1.020E+01 1.020E+01


     ----------------------------------------------------------------

     Non-local correlation energy =             18.771585727917643

     ----------------------------------------------------------------


     total cpu time spent up to now is    41607.1 secs

     total energy              =  -24449.00861870 Ry
     estimated scf accuracy    <       0.00000139 Ry

     total magnetization       =     0.53 Bohr mag/cell
     absolute magnetization    =     0.58 Bohr mag/cell

     iteration # 16     ecut=    60.00 Ry     beta= 0.10
     CG style diagonalization

---- Real-time Memory Report at c_bands before calling an iterative solver
             0 MiB given to the printing process from OS
             0 MiB allocation reported by mallinfo(arena+hblkhd)
         94345 MiB available memory on the node where the printing process lives
------------------
     ethr =  7.49E-11,  avg # of iterations =  3.1

     negative rho (up, down):  1.020E+01 1.020E+01


     ----------------------------------------------------------------

     Non-local correlation energy =             18.771583731125592

     ----------------------------------------------------------------


     total cpu time spent up to now is    43602.1 secs

     total energy              =  -24449.00861982 Ry
     estimated scf accuracy    <       0.00000109 Ry

     total magnetization       =     0.49 Bohr mag/cell
     absolute magnetization    =     0.53 Bohr mag/cell

     iteration # 17     ecut=    60.00 Ry     beta= 0.10
     CG style diagonalization

---- Real-time Memory Report at c_bands before calling an iterative solver
             0 MiB given to the printing process from OS
             0 MiB allocation reported by mallinfo(arena+hblkhd)
         94376 MiB available memory on the node where the printing process lives
------------------
     ethr =  5.88E-11,  avg # of iterations =  3.8

     negative rho (up, down):  1.020E+01 1.020E+01


     ----------------------------------------------------------------

     Non-local correlation energy =             18.771597537180313

     ----------------------------------------------------------------

 
     Magnetic moment per site  (integrated on atomic sphere of radius R)
     atom   1 (R=0.028)  charge=  8.9448  magn=  0.0022
     atom   2 (R=0.028)  charge=  8.9441  magn=  0.0022
     atom   3 (R=0.028)  charge=  8.9278  magn=  0.0013
     atom   4 (R=0.028)  charge=  8.9279  magn=  0.0013
     atom   5 (R=0.028)  charge=  8.9448  magn=  0.0022
     atom   6 (R=0.028)  charge=  8.9278  magn=  0.0013
     atom   7 (R=0.028)  charge=  8.9441  magn=  0.0023
     atom   8 (R=0.028)  charge=  8.9356  magn=  0.0009
     atom   9 (R=0.028)  charge=  8.9058  magn=  0.0004
     atom  10 (R=0.028)  charge=  8.9286  magn=  0.0018
     atom  11 (R=0.028)  charge=  8.9286  magn=  0.0019
     atom  12 (R=0.028)  charge=  8.9356  magn=  0.0009
     atom  13 (R=0.028)  charge=  8.9448  magn=  0.0021
     atom  14 (R=0.028)  charge=  8.9279  magn=  0.0013
     atom  15 (R=0.028)  charge=  8.9286  magn=  0.0018
     atom  16 (R=0.028)  charge=  8.9441  magn=  0.0022
     atom  17 (R=0.028)  charge=  8.9278  magn=  0.0013
     atom  18 (R=0.028)  charge=  8.9356  magn=  0.0009
     atom  19 (R=0.028)  charge=  8.9448  magn=  0.0021
     atom  20 (R=0.028)  charge=  8.9286  magn=  0.0018
     atom  21 (R=0.028)  charge=  8.9278  magn=  0.0013
     atom  22 (R=0.028)  charge=  8.9356  magn=  0.0009
     atom  23 (R=0.028)  charge=  8.9278  magn=  0.0013
     atom  24 (R=0.028)  charge=  8.9278  magn=  0.0013
     atom  25 (R=0.028)  charge=  8.9441  magn=  0.0022
     atom  26 (R=0.028)  charge=  8.9279  magn=  0.0013
     atom  27 (R=0.028)  charge=  8.9446  magn=  0.0023
     atom  28 (R=0.028)  charge=  8.9446  magn=  0.0024
     atom  29 (R=0.028)  charge=  8.9355  magn=  0.0010
     atom  30 (R=0.028)  charge=  8.9289  magn=  0.0021
     atom  31 (R=0.028)  charge=  8.9360  magn=  0.0009
     atom  32 (R=0.028)  charge=  8.9279  magn=  0.0022
     atom  33 (R=0.028)  charge=  8.9355  magn=  0.0011
     atom  34 (R=0.028)  charge=  8.9279  magn=  0.0013
     atom  35 (R=0.028)  charge=  8.9446  magn=  0.0024
     atom  36 (R=0.028)  charge=  8.9279  magn=  0.0023
     atom  37 (R=0.028)  charge=  8.9446  magn=  0.0024
     atom  38 (R=0.028)  charge=  8.9355  magn=  0.0011
     atom  39 (R=0.028)  charge=  8.9289  magn=  0.0022
     atom  40 (R=0.028)  charge=  8.9279  magn=  0.0023
     atom  41 (R=0.028)  charge=  8.9360  magn=  0.0009
     atom  42 (R=0.028)  charge=  8.9253  magn=  0.0020
     atom  43 (R=0.028)  charge=  8.9210  magn=  0.0007
     atom  44 (R=0.028)  charge=  8.9215  magn=  0.0009
     atom  45 (R=0.028)  charge=  8.9214  magn=  0.0009
     atom  46 (R=0.028)  charge=  8.9253  magn=  0.0020
     atom  47 (R=0.028)  charge=  8.9289  magn=  0.0021
     atom  48 (R=0.028)  charge=  8.9279  magn=  0.0023
     atom  49 (R=0.028)  charge=  8.9215  magn=  0.0009
     atom  50 (R=0.028)  charge=  8.9355  magn=  0.0010
     atom  51 (R=0.028)  charge=  8.9360  magn=  0.0009
     atom  52 (R=0.028)  charge=  8.9355  magn=  0.0011
     atom  53 (R=0.028)  charge=  8.9279  magn=  0.0014
     atom  54 (R=0.028)  charge=  8.9279  magn=  0.0024
     atom  55 (R=0.028)  charge=  8.9446  magn=  0.0025
     atom  56 (R=0.028)  charge=  8.9253  magn=  0.0021
     atom  57 (R=0.028)  charge=  8.9289  magn=  0.0021
     atom  58 (R=0.028)  charge=  8.9214  magn=  0.0009
     atom  59 (R=0.028)  charge=  8.9279  magn=  0.0024
     atom  60 (R=0.028)  charge=  8.9253  magn=  0.0020
     atom  61 (R=0.028)  charge=  8.9279  magn=  0.0013
     atom  62 (R=0.028)  charge=  8.9279  magn=  0.0023
     atom  63 (R=0.028)  charge=  8.9279  magn=  0.0023
     atom  64 (R=0.028)  charge=  8.9355  magn=  0.0010
     atom  65 (R=0.028)  charge=  8.9446  magn=  0.0024
     atom  66 (R=0.028)  charge=  8.9446  magn=  0.0025
     atom  67 (R=0.028)  charge=  8.9355  magn=  0.0011
     atom  68 (R=0.028)  charge=  8.9360  magn=  0.0009
     atom  69 (R=0.028)  charge=  8.9355  magn=  0.0010
     atom  70 (R=0.028)  charge=  8.9446  magn=  0.0024
     atom  71 (R=0.028)  charge=  8.9277  magn=  0.0015
     atom  72 (R=0.028)  charge=  8.9353  magn=  0.0013
     atom  73 (R=0.028)  charge=  8.9278  magn=  0.0025
     atom  74 (R=0.028)  charge=  8.9443  magn=  0.0028
     atom  75 (R=0.028)  charge=  8.9280  magn=  0.0016
     atom  76 (R=0.028)  charge=  8.9353  magn=  0.0013
     atom  77 (R=0.028)  charge=  8.9277  magn=  0.0015
     atom  78 (R=0.028)  charge=  8.9280  magn=  0.0016
     atom  79 (R=0.028)  charge=  8.9353  magn=  0.0013
     atom  80 (R=0.028)  charge=  8.9278  magn=  0.0026
     atom  81 (R=0.028)  charge=  8.9280  magn=  0.0016
     atom  82 (R=0.028)  charge=  8.9443  magn=  0.0029
     atom  83 (R=0.028)  charge=  8.9257  magn=  0.0027
     atom  84 (R=0.028)  charge=  8.9216  magn=  0.0011
     atom  85 (R=0.028)  charge=  8.9278  magn=  0.0029
     atom  86 (R=0.028)  charge=  8.9278  magn=  0.0029
     atom  87 (R=0.028)  charge=  8.9257  magn=  0.0027
     atom  88 (R=0.028)  charge=  8.9278  magn=  0.0025
     atom  89 (R=0.028)  charge=  8.9280  magn=  0.0016
     atom  90 (R=0.028)  charge=  8.9279  magn=  0.0029
     atom  91 (R=0.028)  charge=  8.9353  magn=  0.0013
     atom  92 (R=0.028)  charge=  8.9444  magn=  0.0028
     atom  93 (R=0.028)  charge=  8.9353  magn=  0.0014
     atom  94 (R=0.028)  charge=  8.9277  magn=  0.0016
     atom  95 (R=0.028)  charge=  8.9280  magn=  0.0017
     atom  96 (R=0.028)  charge=  8.9257  magn=  0.0028
     atom  97 (R=0.028)  charge=  8.9278  magn=  0.0026
     atom  98 (R=0.028)  charge=  8.9279  magn=  0.0029
     atom  99 (R=0.028)  charge=  8.9280  magn=  0.0017
     atom 100 (R=0.028)  charge=  8.9257  magn=  0.0027
     atom 101 (R=0.028)  charge=  8.9277  magn=  0.0015
     atom 102 (R=0.028)  charge=  8.9280  magn=  0.0016
     atom 103 (R=0.028)  charge=  8.9280  magn=  0.0016
     atom 104 (R=0.028)  charge=  8.9353  magn=  0.0013
     atom 105 (R=0.028)  charge=  8.9353  magn=  0.0014
     atom 106 (R=0.028)  charge=  8.9444  magn=  0.0029
     atom 107 (R=0.028)  charge=  8.9353  magn=  0.0013
     atom 108 (R=0.028)  charge=  8.9445  magn=  0.0030
     atom 109 (R=0.028)  charge=  8.9445  magn=  0.0031
     atom 110 (R=0.028)  charge=  8.9353  magn=  0.0016
     atom 111 (R=0.028)  charge=  8.9352  magn=  0.0011
     atom 112 (R=0.028)  charge=  8.9353  magn=  0.0015
     atom 113 (R=0.028)  charge=  8.9445  magn=  0.0031
     atom 114 (R=0.028)  charge=  8.9354  magn=  0.0016
     atom 115 (R=0.028)  charge=  8.9445  magn=  0.0031
     atom 116 (R=0.028)  charge=  8.9354  magn=  0.0016
     atom 117 (R=0.028)  charge=  0.7913  magn= -0.0000

     total cpu time spent up to now is    46266.8 secs

     End of self-consistent calculation

 ------ SPIN UP ------------


          k = 0.0000 0.0000 0.0000 (413569 PWs)   bands (ev):

   -55.5471 -55.4926 -55.4898 -55.4898 -55.4734 -55.4724 -55.4724 -55.4630
   -55.4630 -55.4623 -55.4608 -55.4577 -55.4143 -55.4127 -55.4127 -55.4103
   -55.4103 -55.4079 -55.3890 -55.3882 -55.3760 -55.3727 -55.3689 -55.3689
   -55.3675 -55.3671 -55.3659 -55.3659 -55.3500 -55.3265 -55.3265 -55.3225
   -55.2997 -55.2990 -55.2990 -55.2962 -55.2943 -55.2943 -55.2928 -55.2866
   -55.2866 -55.2846 -55.2783 -55.2730 -55.2727 -55.2567 -55.2567 -55.2543
   -55.2510 -55.2497 -55.2497 -55.2479 -55.2479 -55.2459 -55.2381 -55.2381
   -55.2375 -55.2366 -55.2197 -55.2197 -55.2177 -55.2164 -55.2161 -55.2161
   -55.2132 -55.2067 -55.2039 -55.2032 -55.2032 -55.2011 -55.1988 -55.1714
   -55.1714 -55.1694 -55.1669 -55.1647 -55.1647 -55.1645 -55.1617 -55.1610
   -55.1607 -55.1607 -55.1329 -55.1329 -55.1314 -55.1234 -55.1210 -55.1210
   -55.1153 -55.1138 -55.1130 -55.1126 -55.0983 -55.0980 -55.0979 -55.0957
   -55.0921 -55.0921 -55.0909 -55.0908 -55.0899 -55.0899 -55.0890 -55.0890
   -55.0868 -55.0854 -55.0839 -55.0689 -55.0689 -55.0687 -55.0619 -55.0557
   -55.0557 -55.0480 -55.0092 -54.9075 -54.9075 -54.8943 -54.8922 -54.8922
   -54.8917 -54.8899 -54.8895 -54.8895 -54.8870 -54.8414 -54.8398 -54.8366
   -54.8365 -54.8365 -54.8349 -54.8349 -54.8342 -54.8333 -54.8324 -54.8317
   -54.8316 -54.8299 -54.8299 -54.8263 -54.8244 -54.7807 -54.7735 -54.7735
   -54.7733 -54.7657 -54.7656 -54.7656 -54.7575 -54.7302 -54.7275 -54.7275
   -54.7247 -54.7237 -54.7214 -54.7189 -54.7189 -54.7185 -54.7185 -54.7180
   -54.7168 -54.7163 -54.7126 -54.7126 -54.7125 -54.7011 -54.7011 -54.6989
   -54.6972 -54.6972 -54.6965 -54.6960 -54.6923 -54.6918 -54.6918 -54.6918
   -54.6909 -54.6874 -54.6861 -54.6860 -54.6860 -54.6597 -54.6597 -54.6594
   -54.6576 -54.6534 -54.6534 -54.6518 -54.6485 -54.6485 -54.6471 -54.6435
   -54.6392 -54.6391 -54.6385 -54.6350 -54.6343 -54.6343 -54.6303 -54.5414
   -54.5401 -54.5286 -54.5267 -54.5265 -54.5265 -54.5205 -54.5205 -54.5140
   -54.5129 -54.5108 -54.5098 -54.5075 -54.5074 -54.4752 -54.4752 -54.4752
   -54.4739 -54.4714 -54.4688 -54.4688 -54.4663 -54.4650 -54.4650 -54.4642
   -54.4642 -54.4636 -54.4623 -54.4621 -54.4594 -54.4594 -54.4531 -54.4505
   -54.4505 -54.4500 -54.4476 -54.4476 -54.4469 -54.4437 -54.4429 -54.4420
   -54.4383 -54.4325 -54.4275 -54.4275 -54.4254 -54.4254 -54.4247 -54.4215
   -54.4198 -54.4184 -54.4184 -54.4165 -54.4165 -54.4102 -54.4085 -54.4085
   -54.4074 -54.4036 -54.4012 -54.3673 -54.3668 -54.3660 -54.3659 -54.3654
   -54.3588 -54.3584 -54.3564 -54.3559 -54.3559 -54.3558 -54.3558 -54.3547
   -54.3512 -54.3511 -54.3496 -54.3446 -54.3439 -54.3409 -54.3409 -54.3393
   -54.3360 -54.3347 -54.3347 -54.3334 -54.3275 -54.3273 -54.3271 -54.3271
   -54.3221 -54.3217 -54.3217 -54.3216 -54.3212 -54.3206 -54.3205 -54.3199
   -54.3190 -54.3184 -54.3184 -54.3177 -54.3076 -54.3070 -54.3069 -54.3065
   -54.3049 -54.3044 -54.3044 -54.3040 -54.2977 -54.2975 -54.2974 -54.2974
   -54.2967 -54.2967 -54.2966 -54.2963 -54.2962 -54.2957 -54.2957 -54.2953
   -54.2942 -54.2932 -54.2932 -54.2923 -54.2456 -54.2445 -54.2444 -54.2437
   -54.2435 -54.2424 -54.2423 -54.2416 -54.2414 -54.2411 -54.2410 -54.2401
   -54.2105 -54.2104 -54.2104 -54.2104 -54.2086 -54.2085 -54.2085 -54.2085
   -54.2085 -54.2085 -54.2084 -54.2084 -11.5029 -10.6692 -10.6565 -10.6565
    -9.7893  -9.7893  -9.7861  -9.7774  -9.7561  -9.5499  -9.1815  -9.1787
    -9.1787  -9.0875  -8.9531  -8.9531  -8.9510  -8.7814  -8.7518  -8.7480
    -8.7388  -8.7098  -8.7098  -8.6516  -8.5969  -8.5850  -8.5850  -8.5791
    -8.5780  -8.5780  -8.5729  -8.5545  -8.5545  -8.5493  -8.3830  -8.3820
    -8.3820  -8.3396  -8.3318  -8.3187  -8.3187  -8.3177  -8.2881  -8.2880
    -8.2862  -8.2733  -8.2467  -8.2467  -8.1200  -8.1156  -8.0580  -8.0537
    -8.0537  -7.9985  -7.9757  -7.9633  -7.9096  -7.9096  -7.9081  -7.9073
    -7.9073  -7.9070  -7.8578  -7.8474  -7.8333  -7.8333  -7.8315  -7.8220
    -7.8220  -7.7825  -7.7286  -7.6955  -7.6955  -7.6927  -7.6708  -7.5814
    -7.5775  -7.5766  -7.5716  -7.5716  -7.5713  -7.5697  -7.5670  -7.5670
    -7.5664  -7.5657  -7.5592  -7.5592  -7.5419  -7.5419  -7.5402  -7.4688
    -7.4625  -7.4548  -7.4548  -7.4536  -7.4520  -7.4520  -7.4382  -7.4361
    -7.4325  -7.4325  -7.4281  -7.4070  -7.3823  -7.3823  -7.3783  -7.3279
    -7.3123  -7.3038  -7.2273  -7.2273  -7.2236  -7.1820  -7.1807  -7.1807
    -7.0959  -7.0959  -7.0956  -7.0780  -7.0638  -7.0638  -6.9947  -6.9919
    -6.9918  -6.9489  -6.9489  -6.9485  -6.9105  -6.9105  -6.9085  -6.9063
    -6.8971  -6.8959  -6.8177  -6.7967  -6.7925  -6.7597  -6.7505  -6.6640
    -6.6412  -6.6292  -6.5987  -6.5987  -6.5845  -6.5818  -6.5805  -6.5805
    -6.5618  -6.5618  -6.5251  -6.5230  -6.5229  -6.5155  -6.5152  -6.5152
    -6.4680  -6.4661  -6.4573  -6.4573  -6.4534  -6.4510  -6.4498  -6.4498
    -6.4494  -6.4470  -6.4470  -6.4469  -6.4454  -6.4450  -6.4450  -6.3460
    -6.3417  -6.3336  -6.3336  -6.3328  -6.3221  -6.3205  -6.2952  -6.2952
    -6.2879  -6.2315  -6.2315  -6.2312  -6.2286  -6.2286  -6.2254  -6.2240
    -6.2001  -6.2001  -6.1954  -6.1787  -6.1787  -6.1748  -6.1265  -6.0997
    -6.0997  -6.0871  -6.0732  -6.0725  -6.0725  -6.0496  -6.0332  -6.0332
    -6.0293  -6.0125  -5.9999  -5.9990  -5.9894  -5.9894  -5.9868  -5.9858
    -5.9788  -5.9788  -5.9259  -5.9015  -5.8956  -5.8956  -5.8907  -5.8903
    -5.8599  -5.8594  -5.8594  -5.8194  -5.8194  -5.8135  -5.7578  -5.7237
    -5.7090  -5.6948  -5.6948  -5.6772  -5.6765  -5.6561  -5.6503  -5.6410
    -5.6410  -5.6374  -5.6292  -5.6292  -5.6234  -5.6233  -5.6223  -5.6080
    -5.6077  -5.6077  -5.6040  -5.5289  -5.5122  -5.5122  -5.5010  -5.5010
    -5.4994  -5.4958  -5.4732  -5.4732  -5.4701  -5.4497  -5.4492  -5.4492
    -5.4391  -5.4360  -5.4213  -5.3997  -5.3997  -5.3955  -5.3788  -5.3612
    -5.3581  -5.3191  -5.3131  -5.3131  -5.2834  -5.2834  -5.2766  -5.2338
    -5.2338  -5.2231  -5.1986  -5.1618  -5.1618  -5.1610  -5.1465  -5.1261
    -5.1202  -5.1131  -5.1127  -5.1127  -5.1121  -5.1115  -5.0998  -5.0982
    -5.0982  -5.0931  -5.0582  -5.0567  -5.0567  -5.0353  -5.0353  -5.0337
    -4.9894  -4.9779  -4.9773  -4.9772  -4.9654  -4.9654  -4.9651  -4.9613
    -4.9519  -4.8742  -4.8729  -4.8729  -4.8468  -4.8468  -4.8405  -4.8307
    -4.8147  -4.8147  -4.8147  -4.8084  -4.7935  -4.7935  -4.7772  -4.7425
    -4.7425  -4.7417  -4.7335  -4.7335  -4.7274  -4.6278  -4.6235  -4.6235
    -4.5769  -4.5686  -4.5686  -4.5463  -4.5396  -4.5396  -4.5375  -4.5217
    -4.5216  -4.4973  -4.4973  -4.4971  -4.4896  -4.4896  -4.4893  -4.4603
    -4.4602  -4.4505  -4.4505  -4.4430  -4.4211  -4.3822  -4.3818  -4.3658
    -4.3420  -4.3420  -4.3413  -4.3354  -4.3335  -4.3134  -4.3134  -4.3077
    -4.3036  -4.3036  -4.3008  -4.2753  -4.2629  -4.2606  -4.2606  -4.2587
    -4.2586  -4.2571  -4.2461  -4.2461  -4.2335  -4.2175  -4.1612  -4.1526
    -4.1396  -4.1396  -4.1287  -4.1235  -4.1141  -4.0904  -4.0879  -4.0869
    -4.0869  -4.0828  -4.0815  -4.0329  -4.0240  -4.0240  -4.0000  -4.0000
    -4.0000  -3.9547  -3.9547  -3.9461  -3.9134  -3.9098  -3.9039  -3.8990
    -3.8990  -3.8963  -3.8752  -3.8752  -3.8752  -3.8154  -3.8085  -3.8085
    -3.7973  -3.7939  -3.7929  -3.7929  -3.7892  -3.7786  -3.7771  -3.7770
    -3.7686  -3.7483  -3.7434  -3.7395  -3.7321  -3.7270  -3.7270  -3.7241
    -3.7038  -3.7038  -3.7038  -3.6850  -3.6850  -3.6818  -3.6721  -3.6721
    -3.6625  -3.6223  -3.6223  -3.6101  -3.6100  -3.6100  -3.5998  -3.5862
    -3.5862  -3.5575  -3.5575  -3.5567  -3.5469  -3.5367  -3.5332  -3.5332
    -3.5253  -3.5138  -3.4865  -3.4837  -3.4837  -3.4829  -3.4561  -3.4293
    -3.4290  -3.4077  -3.3923  -3.3905  -3.3905  -3.3844  -3.3545  -3.3545
    -3.3460  -3.3121  -3.3121  -3.3120  -3.2892  -3.2892  -3.2858  -3.2371
    -3.2322  -3.2316  -3.2219  -3.2218  -3.2030  -3.2030  -3.2029  -3.1924
    -3.1889  -3.1888  -3.1888  -3.1770  -3.1671  -3.1652  -3.1619  -3.1619
    -3.1471  -3.1195  -3.1062  -3.0980  -3.0956  -3.0956  -3.0918  -3.0895
    -3.0819  -3.0819  -3.0742  -3.0742  -3.0718  -3.0533  -3.0478  -3.0478
    -3.0037  -2.9976  -2.9976  -2.9809  -2.9705  -2.9705  -2.9666  -2.9666
    -2.9628  -2.9101  -2.9101  -2.9052  -2.8606  -2.8588  -2.8580  -2.8540
    -2.8461  -2.8461  -2.8448  -2.8331  -2.8331  -2.8314  -2.8188  -2.7904
    -2.7904  -2.7806  -2.7749  -2.7407  -2.7099  -2.6831  -2.6797  -2.6797
    -2.6792  -2.6792  -2.6791  -2.6791  -2.6783  -2.6783  -2.6728  -2.6665
    -2.6244  -2.6244  -2.6218  -2.6182  -2.5980  -2.5973  -2.5962  -2.5962
    -2.5950  -2.5889  -2.5886  -2.5886  -2.5878  -2.5878  -2.5862  -2.5817
    -2.5784  -2.5766  -2.5618  -2.5526  -2.5525  -2.5473  -2.5255  -2.5255
    -2.5250  -2.5221  -2.5221  -2.5175  -2.4735  -2.4729  -2.4576  -2.4380
    -2.4380  -2.4316  -2.3927  -2.3927  -2.3925  -2.3731  -2.3707  -2.3707
    -2.3420  -2.3420  -2.3399  -2.3325  -2.2953  -2.2953  -2.2903  -2.2726
    -2.2726  -2.2551  -2.2551  -2.2534  -2.2507  -2.2504  -2.2431  -2.2036
    -2.2036  -2.2030  -2.1795  -2.1685  -2.1345  -2.1095  -2.1089  -2.1084
    -2.0787  -2.0702  -2.0702  -2.0524  -2.0524  -2.0522  -2.0495  -2.0462
    -2.0462  -2.0432  -2.0426  -2.0426  -1.8377  -1.8309  -1.5073  -1.2807
    -1.2807  -1.2772  -1.2764  -1.2764  -1.2466  -1.2111  -1.1508  -1.1508
    -1.1491  -1.1391  -1.1391  -1.1307  -1.0999  -1.0999  -1.0991  -1.0984
    -1.0403  -1.0301  -0.9172  -0.9171  -0.9167  -0.4635  -0.4282  -0.4282
    -0.4271  -0.1611   0.0022   0.0022   0.0089   0.0719   0.0719   0.0779
     0.0958   0.0990   0.1685   0.1692   0.1692   0.1766   0.2699   0.2730
     0.2730   0.2734   0.2786   0.2864   0.2864   0.2984   0.2990   0.3226
     0.4099   0.4099   0.5025   0.9729   1.2280   1.2280   1.3008   1.3630
     1.3630   1.3648   1.4763   1.4780   1.5012   1.5012   1.5013   1.5054
     1.5054   1.5432   1.5441   1.5441   1.5504   1.5758   1.5758   1.5763
     1.6198   1.6501   1.6765   1.6765   1.6807   1.6807   1.6991   1.7754
     2.1343   2.2361   2.2361   2.2366   2.3151   2.3292   2.3826   2.4924
     2.4956   2.5116   2.5188   2.5196   2.5591   2.6686   2.7003   2.7072
     2.7235   2.7236   2.7607   2.7626   2.7647   2.7722   2.7729   2.7744
     2.7979   2.8033   2.8033   2.8042   2.8368   2.8559   2.8695   2.8717
     2.8718   2.8753   2.8900   2.8906   2.8909   2.9671   2.9673   2.9675
     2.9778   3.1008   3.1060   3.1078   3.1080   3.1667   3.1670   3.1724
     3.1868   3.2296   3.2329   3.2330   3.3148   3.3378   3.3444   3.3611
     3.3647   3.3764   3.3807

     occupation numbers 
     1.0000   1.0000   1.0000   1.0000   1.0000   1.0000   1.0000   1.0000
     1.0000   1.0000   1.0000   1.0000   1.0000   1.0000   1.0000   1.0000
     1.0000   1.0000   1.0000   1.0000   1.0000   1.0000   1.0000   1.0000
     1.0000   1.0000   1.0000   1.0000   1.0000   1.0000   1.0000   1.0000
     1.0000   1.0000   1.0000   1.0000   1.0000   1.0000   1.0000   1.0000
     1.0000   1.0000   1.0000   1.0000   1.0000   1.0000   1.0000   1.0000
     1.0000   1.0000   1.0000   1.0000   1.0000   1.0000   1.0000   1.0000
     1.0000   1.0000   1.0000   1.0000   1.0000   1.0000   1.0000   1.0000
     1.0000   1.0000   1.0000   1.0000   1.0000   1.0000   1.0000   1.0000
     1.0000   1.0000   1.0000   1.0000   1.0000   1.0000   1.0000   1.0000
     1.0000   1.0000   1.0000   1.0000   1.0000   1.0000   1.0000   1.0000
     1.0000   1.0000   1.0000   1.0000   1.0000   1.0000   1.0000   1.0000
     1.0000   1.0000   1.0000   1.0000   1.0000   1.0000   1.0000   1.0000
     1.0000   1.0000   1.0000   1.0000   1.0000   1.0000   1.0000   1.0000
     1.0000   1.0000   1.0000   1.0000   1.0000   1.0000   1.0000   1.0000
     1.0000   1.0000   1.0000   1.0000   1.0000   1.0000   1.0000   1.0000
     1.0000   1.0000   1.0000   1.0000   1.0000   1.0000   1.0000   1.0000
     1.0000   1.0000   1.0000   1.0000   1.0000   1.0000   1.0000   1.0000
     1.0000   1.0000   1.0000   1.0000   1.0000   1.0000   1.0000   1.0000
     1.0000   1.0000   1.0000   1.0000   1.0000   1.0000   1.0000   1.0000
     1.0000   1.0000   1.0000   1.0000   1.0000   1.0000   1.0000   1.0000
     1.0000   1.0000   1.0000   1.0000   1.0000   1.0000   1.0000   1.0000
     1.0000   1.0000   1.0000   1.0000   1.0000   1.0000   1.0000   1.0000
     1.0000   1.0000   1.0000   1.0000   1.0000   1.0000   1.0000   1.0000
     1.0000   1.0000   1.0000   1.0000   1.0000   1.0000   1.0000   1.0000
     1.0000   1.0000   1.0000   1.0000   1.0000   1.0000   1.0000   1.0000
     1.0000   1.0000   1.0000   1.0000   1.0000   1.0000   1.0000   1.0000
     1.0000   1.0000   1.0000   1.0000   1.0000   1.0000   1.0000   1.0000
     1.0000   1.0000   1.0000   1.0000   1.0000   1.0000   1.0000   1.0000
     1.0000   1.0000   1.0000   1.0000   1.0000   1.0000   1.0000   1.0000
     1.0000   1.0000   1.0000   1.0000   1.0000   1.0000   1.0000   1.0000
     1.0000   1.0000   1.0000   1.0000   1.0000   1.0000   1.0000   1.0000
     1.0000   1.0000   1.0000   1.0000   1.0000   1.0000   1.0000   1.0000
     1.0000   1.0000   1.0000   1.0000   1.0000   1.0000   1.0000   1.0000
     1.0000   1.0000   1.0000   1.0000   1.0000   1.0000   1.0000   1.0000
     1.0000   1.0000   1.0000   1.0000   1.0000   1.0000   1.0000   1.0000
     1.0000   1.0000   1.0000   1.0000   1.0000   1.0000   1.0000   1.0000
     1.0000   1.0000   1.0000   1.0000   1.0000   1.0000   1.0000   1.0000
     1.0000   1.0000   1.0000   1.0000   1.0000   1.0000   1.0000   1.0000
     1.0000   1.0000   1.0000   1.0000   1.0000   1.0000   1.0000   1.0000
     1.0000   1.0000   1.0000   1.0000   1.0000   1.0000   1.0000   1.0000
     1.0000   1.0000   1.0000   1.0000   1.0000   1.0000   1.0000   1.0000
     1.0000   1.0000   1.0000   1.0000   1.0000   1.0000   1.0000   1.0000
     1.0000   1.0000   1.0000   1.0000   1.0000   1.0000   1.0000   1.0000
     1.0000   1.0000   1.0000   1.0000   1.0000   1.0000   1.0000   1.0000
     1.0000   1.0000   1.0000   1.0000   1.0000   1.0000   1.0000   1.0000
     1.0000   1.0000   1.0000   1.0000   1.0000   1.0000   1.0000   1.0000
     1.0000   1.0000   1.0000   1.0000   1.0000   1.0000   1.0000   1.0000
     1.0000   1.0000   1.0000   1.0000   1.0000   1.0000   1.0000   1.0000
     1.0000   1.0000   1.0000   1.0000   1.0000   1.0000   1.0000   1.0000
     1.0000   1.0000   1.0000   1.0000   1.0000   1.0000   1.0000   1.0000
     1.0000   1.0000   1.0000   1.0000   1.0000   1.0000   1.0000   1.0000
     1.0000   1.0000   1.0000   1.0000   1.0000   1.0000   1.0000   1.0000
     1.0000   1.0000   1.0000   1.0000   1.0000   1.0000   1.0000   1.0000
     1.0000   1.0000   1.0000   1.0000   1.0000   1.0000   1.0000   1.0000
     1.0000   1.0000   1.0000   1.0000   1.0000   1.0000   1.0000   1.0000
     1.0000   1.0000   1.0000   1.0000   1.0000   1.0000   1.0000   1.0000
     1.0000   1.0000   1.0000   1.0000   1.0000   1.0000   1.0000   1.0000
     1.0000   1.0000   1.0000   1.0000   1.0000   1.0000   1.0000   1.0000
     1.0000   1.0000   1.0000   1.0000   1.0000   1.0000   1.0000   1.0000
     1.0000   1.0000   1.0000   1.0000   1.0000   1.0000   1.0000   1.0000
     1.0000   1.0000   1.0000   1.0000   1.0000   1.0000   1.0000   1.0000
     1.0000   1.0000   1.0000   1.0000   1.0000   1.0000   1.0000   1.0000
     1.0000   1.0000   1.0000   1.0000   1.0000   1.0000   1.0000   1.0000
     1.0000   1.0000   1.0000   1.0000   1.0000   1.0000   1.0000   1.0000
     1.0000   1.0000   1.0000   1.0000   1.0000   1.0000   1.0000   1.0000
     1.0000   1.0000   1.0000   1.0000   1.0000   1.0000   1.0000   1.0000
     1.0000   1.0000   1.0000   1.0000   1.0000   1.0000   1.0000   1.0000
     1.0000   1.0000   1.0000   1.0000   1.0000   1.0000   1.0000   1.0000
     1.0000   1.0000   1.0000   1.0000   1.0000   1.0000   1.0000   1.0000
     1.0000   1.0000   1.0000   1.0000   1.0000   1.0000   1.0000   1.0000
     1.0000   1.0000   1.0000   1.0000   1.0000   1.0000   1.0000   1.0000
     1.0000   1.0000   1.0000   1.0000   1.0000   1.0000   1.0000   1.0000
     1.0000   1.0000   1.0000   1.0000   1.0000   1.0000   1.0000   1.0000
     1.0000   1.0000   1.0000   1.0000   1.0000   1.0000   1.0000   1.0000
     1.0000   1.0000   1.0000   1.0000   1.0000   1.0000   1.0000   1.0000
     1.0000   1.0000   1.0000   1.0000   1.0000   1.0000   1.0000   1.0000
     1.0000   1.0000   1.0000   1.0000   1.0000   1.0000   1.0000   1.0000
     1.0000   1.0000   1.0000   1.0000   1.0000   1.0000   1.0000   1.0000
     1.0000   1.0000   1.0000   1.0000   1.0000   1.0000   1.0000   1.0000
     1.0000   1.0000   1.0000   1.0000   1.0000   1.0000   1.0000   1.0000
     1.0000   1.0000   1.0000   1.0000   1.0000   1.0000   1.0000   1.0000
     1.0000   1.0000   1.0000   1.0000   1.0000   1.0000   1.0000   1.0000
     1.0000   1.0000   1.0000   1.0000   1.0000   1.0000   1.0000   1.0000
     1.0000   1.0000   1.0000   1.0000   1.0000   1.0000   1.0000   1.0000
     1.0000   1.0000   1.0000   1.0000   1.0000   1.0000   1.0000   1.0000
     1.0000   1.0000   1.0000   1.0000   1.0000   1.0000   1.0000   1.0000
     1.0000   1.0000   1.0000   1.0000   1.0000   1.0000   1.0000   1.0000
     1.0000   1.0000   1.0000   1.0000   1.0000   1.0000   1.0000   1.0000
     1.0000   1.0000   1.0000   1.0000   1.0000   1.0000   1.0000   1.0000
     1.0000   1.0000   1.0000   1.0000   1.0000   1.0000   1.0000   1.0000
     1.0000   1.0000   1.0000   1.0000   1.0000   1.0000   1.0000   1.0000
     1.0000   1.0000   1.0000   1.0000   1.0000   1.0000   1.0000   1.0000
     1.0000   1.0000   1.0000   1.0000   1.0000   1.0000   1.0000   1.0000
     1.0000   1.0000   1.0000   1.0000   1.0000   1.0000   1.0000   1.0000
     1.0000   1.0000   1.0000   1.0000   1.0000   1.0000   1.0000   1.0000
     1.0000   1.0000   1.0000   1.0000   1.0000   1.0000   1.0000   1.0000
     1.0000   1.0000   1.0000   1.0000   1.0000   1.0000   1.0000   1.0000
     1.0000   1.0000   1.0000   1.0000   1.0000   1.0000   1.0000   1.0000
     1.0000   1.0000   1.0000   1.0000   1.0000   1.0000   1.0000   1.0000
     1.0000   1.0000   1.0000   1.0000   1.0000   1.0000   1.0000   1.0000
     1.0000   1.0000   1.0000   1.0000   1.0000   1.0000   1.0000   1.0000
     1.0000   1.0000   1.0000   1.0000   1.0000   1.0000   1.0000   1.0000
     1.0000   1.0000   1.0000   1.0000   1.0000   1.0000   1.0000   1.0000
     1.0000   1.0000   1.0000   1.0000   1.0000   1.0000   1.0000   1.0000
     1.0000   1.0000   1.0000   1.0000   1.0000   1.0000   1.0000   1.0000
     1.0000   1.0000   1.0000   1.0000   1.0000   1.0000   1.0000   1.0000
     1.0000   1.0000   1.0000   1.0000   1.0000   1.0000   1.0000   1.0000
     1.0000   1.0000   1.0000   1.0000   1.0000   1.0000   1.0000   1.0000
     1.0000   1.0000   1.0000   1.0000   1.0000   1.0000   1.0000   0.9999
     0.9999   0.9999   0.9998   0.9994   0.9983   0.9961   0.9956   0.9956
     0.9956   0.9956   0.9955   0.9955   0.9954   0.9954   0.9946   0.9935
     0.9796   0.9796   0.9783   0.9763   0.9618   0.9612   0.9602   0.9602
     0.9592   0.9533   0.9530   0.9530   0.9522   0.9522   0.9505   0.9455
     0.9416   0.9394   0.9187   0.9032   0.9032   0.8936   0.8458   0.8458
     0.8445   0.8374   0.8374   0.8252   0.6837   0.6816   0.6230   0.5436
     0.5436   0.5172   0.3589   0.3588   0.3580   0.2858   0.2777   0.2777
     0.1870   0.1870   0.1813   0.1618   0.0847   0.0847   0.0770   0.0537
     0.0537   0.0366   0.0366   0.0352   0.0331   0.0329   0.0277   0.0100
     0.0100   0.0098   0.0050   0.0036   0.0012   0.0005   0.0005   0.0005
     0.0001   0.0001   0.0001   0.0000   0.0000   0.0000   0.0000   0.0000
     0.0000   0.0000   0.0000   0.0000   0.0000   0.0000   0.0000   0.0000
     0.0000   0.0000   0.0000   0.0000   0.0000   0.0000   0.0000   0.0000
     0.0000   0.0000   0.0000   0.0000   0.0000   0.0000   0.0000   0.0000
     0.0000   0.0000   0.0000   0.0000   0.0000   0.0000   0.0000   0.0000
     0.0000   0.0000   0.0000   0.0000   0.0000   0.0000   0.0000   0.0000
     0.0000   0.0000   0.0000   0.0000   0.0000   0.0000   0.0000   0.0000
     0.0000   0.0000   0.0000   0.0000   0.0000   0.0000   0.0000   0.0000
     0.0000   0.0000   0.0000   0.0000   0.0000   0.0000   0.0000   0.0000
     0.0000   0.0000   0.0000   0.0000   0.0000   0.0000   0.0000   0.0000
     0.0000   0.0000   0.0000   0.0000   0.0000   0.0000   0.0000   0.0000
     0.0000   0.0000   0.0000   0.0000   0.0000   0.0000   0.0000   0.0000
     0.0000   0.0000   0.0000   0.0000   0.0000   0.0000   0.0000   0.0000
     0.0000   0.0000   0.0000   0.0000   0.0000   0.0000   0.0000   0.0000
     0.0000   0.0000   0.0000   0.0000   0.0000   0.0000   0.0000   0.0000
     0.0000   0.0000   0.0000   0.0000   0.0000   0.0000   0.0000   0.0000
     0.0000   0.0000   0.0000   0.0000   0.0000   0.0000   0.0000   0.0000
     0.0000   0.0000   0.0000   0.0000   0.0000   0.0000   0.0000   0.0000
     0.0000   0.0000   0.0000   0.0000   0.0000   0.0000   0.0000   0.0000
     0.0000   0.0000   0.0000

 ------ SPIN DOWN ----------


          k = 0.0000 0.0000 0.0000 (413569 PWs)   bands (ev):

   -55.5454 -55.4903 -55.4876 -55.4875 -55.4706 -55.4695 -55.4695 -55.4597
   -55.4597 -55.4586 -55.4574 -55.4547 -55.4110 -55.4094 -55.4094 -55.4072
   -55.4072 -55.4047 -55.3853 -55.3845 -55.3730 -55.3697 -55.3660 -55.3660
   -55.3644 -55.3644 -55.3631 -55.3631 -55.3465 -55.3234 -55.3234 -55.3194
   -55.2963 -55.2955 -55.2955 -55.2927 -55.2909 -55.2909 -55.2895 -55.2834
   -55.2834 -55.2810 -55.2749 -55.2697 -55.2694 -55.2537 -55.2537 -55.2515
   -55.2476 -55.2462 -55.2461 -55.2444 -55.2444 -55.2423 -55.2346 -55.2346
   -55.2338 -55.2332 -55.2165 -55.2165 -55.2143 -55.2138 -55.2135 -55.2135
   -55.2100 -55.2038 -55.2019 -55.2011 -55.2011 -55.1975 -55.1951 -55.1675
   -55.1675 -55.1657 -55.1634 -55.1612 -55.1612 -55.1609 -55.1582 -55.1575
   -55.1574 -55.1574 -55.1292 -55.1292 -55.1280 -55.1196 -55.1177 -55.1177
   -55.1122 -55.1106 -55.1095 -55.1090 -55.0951 -55.0951 -55.0944 -55.0924
   -55.0887 -55.0887 -55.0879 -55.0878 -55.0864 -55.0864 -55.0854 -55.0854
   -55.0835 -55.0821 -55.0806 -55.0651 -55.0651 -55.0646 -55.0584 -55.0525
   -55.0525 -55.0447 -55.0081 -54.9069 -54.9069 -54.8923 -54.8903 -54.8903
   -54.8895 -54.8879 -54.8874 -54.8873 -54.8849 -54.8393 -54.8375 -54.8343
   -54.8342 -54.8342 -54.8327 -54.8327 -54.8317 -54.8310 -54.8304 -54.8293
   -54.8293 -54.8275 -54.8275 -54.8241 -54.8220 -54.7785 -54.7713 -54.7713
   -54.7709 -54.7635 -54.7632 -54.7632 -54.7551 -54.7281 -54.7253 -54.7253
   -54.7223 -54.7215 -54.7194 -54.7167 -54.7167 -54.7163 -54.7163 -54.7159
   -54.7142 -54.7141 -54.7104 -54.7104 -54.7103 -54.6991 -54.6991 -54.6967
   -54.6949 -54.6949 -54.6947 -54.6939 -54.6899 -54.6897 -54.6897 -54.6897
   -54.6892 -54.6854 -54.6840 -54.6840 -54.6838 -54.6581 -54.6581 -54.6580
   -54.6562 -54.6519 -54.6519 -54.6503 -54.6469 -54.6469 -54.6457 -54.6413
   -54.6370 -54.6370 -54.6360 -54.6329 -54.6319 -54.6319 -54.6279 -54.5398
   -54.5385 -54.5268 -54.5249 -54.5249 -54.5249 -54.5187 -54.5187 -54.5120
   -54.5109 -54.5090 -54.5080 -54.5059 -54.5059 -54.4731 -54.4731 -54.4731
   -54.4721 -54.4669 -54.4667 -54.4667 -54.4642 -54.4627 -54.4627 -54.4605
   -54.4604 -54.4604 -54.4592 -54.4588 -54.4555 -54.4555 -54.4499 -54.4472
   -54.4472 -54.4466 -54.4442 -54.4442 -54.4439 -54.4392 -54.4386 -54.4382
   -54.4354 -54.4292 -54.4241 -54.4241 -54.4222 -54.4222 -54.4216 -54.4182
   -54.4163 -54.4148 -54.4148 -54.4133 -54.4133 -54.4071 -54.4054 -54.4054
   -54.4044 -54.3999 -54.3985 -54.3631 -54.3629 -54.3618 -54.3618 -54.3605
   -54.3567 -54.3545 -54.3544 -54.3541 -54.3540 -54.3530 -54.3517 -54.3517
   -54.3469 -54.3468 -54.3454 -54.3422 -54.3403 -54.3392 -54.3392 -54.3377
   -54.3337 -54.3324 -54.3324 -54.3311 -54.3257 -54.3256 -54.3254 -54.3254
   -54.3197 -54.3194 -54.3194 -54.3194 -54.3193 -54.3188 -54.3188 -54.3182
   -54.3169 -54.3162 -54.3162 -54.3156 -54.3056 -54.3050 -54.3050 -54.3045
   -54.3025 -54.3020 -54.3020 -54.3016 -54.2956 -54.2953 -54.2953 -54.2952
   -54.2944 -54.2944 -54.2943 -54.2941 -54.2938 -54.2933 -54.2933 -54.2928
   -54.2916 -54.2907 -54.2906 -54.2897 -54.2421 -54.2410 -54.2409 -54.2402
   -54.2398 -54.2390 -54.2390 -54.2381 -54.2377 -54.2369 -54.2369 -54.2358
   -54.2067 -54.2067 -54.2066 -54.2066 -54.2051 -54.2050 -54.2050 -54.2049
   -54.2039 -54.2039 -54.2038 -54.2037 -11.5028 -10.6690 -10.6564 -10.6564
    -9.7890  -9.7890  -9.7858  -9.7772  -9.7558  -9.5494  -9.1805  -9.1777
    -9.1777  -9.0866  -8.9527  -8.9527  -8.9506  -8.7804  -8.7507  -8.7469
    -8.7379  -8.7092  -8.7092  -8.6507  -8.5961  -8.5840  -8.5840  -8.5781
    -8.5770  -8.5770  -8.5717  -8.5533  -8.5533  -8.5480  -8.3817  -8.3806
    -8.3806  -8.3379  -8.3301  -8.3165  -8.3165  -8.3155  -8.2866  -8.2866
    -8.2848  -8.2717  -8.2451  -8.2451  -8.1181  -8.1137  -8.0566  -8.0524
    -8.0524  -7.9975  -7.9746  -7.9621  -7.9079  -7.9079  -7.9063  -7.9059
    -7.9059  -7.9057  -7.8557  -7.8459  -7.8320  -7.8320  -7.8303  -7.8203
    -7.8203  -7.7811  -7.7273  -7.6941  -7.6941  -7.6913  -7.6693  -7.5796
    -7.5759  -7.5750  -7.5702  -7.5702  -7.5700  -7.5684  -7.5654  -7.5654
    -7.5648  -7.5645  -7.5575  -7.5575  -7.5403  -7.5403  -7.5387  -7.4672
    -7.4611  -7.4534  -7.4534  -7.4522  -7.4503  -7.4503  -7.4363  -7.4341
    -7.4309  -7.4309  -7.4265  -7.4058  -7.3804  -7.3804  -7.3765  -7.3262
    -7.3106  -7.3022  -7.2250  -7.2250  -7.2213  -7.1806  -7.1793  -7.1793
    -7.0942  -7.0942  -7.0940  -7.0765  -7.0623  -7.0623  -6.9931  -6.9903
    -6.9903  -6.9475  -6.9475  -6.9471  -6.9087  -6.9087  -6.9066  -6.9046
    -6.8952  -6.8939  -6.8161  -6.7949  -6.7907  -6.7582  -6.7484  -6.6622
    -6.6387  -6.6269  -6.5969  -6.5969  -6.5826  -6.5798  -6.5786  -6.5786
    -6.5599  -6.5599  -6.5230  -6.5209  -6.5209  -6.5130  -6.5127  -6.5127
    -6.4665  -6.4646  -6.4552  -6.4552  -6.4513  -6.4495  -6.4476  -6.4476
    -6.4475  -6.4446  -6.4446  -6.4443  -6.4430  -6.4428  -6.4428  -6.3443
    -6.3400  -6.3320  -6.3320  -6.3313  -6.3196  -6.3180  -6.2934  -6.2934
    -6.2861  -6.2296  -6.2296  -6.2294  -6.2266  -6.2266  -6.2238  -6.2220
    -6.1981  -6.1981  -6.1934  -6.1767  -6.1767  -6.1729  -6.1250  -6.0980
    -6.0980  -6.0854  -6.0714  -6.0708  -6.0707  -6.0474  -6.0309  -6.0309
    -6.0270  -6.0111  -5.9981  -5.9973  -5.9875  -5.9875  -5.9844  -5.9839
    -5.9763  -5.9763  -5.9238  -5.8997  -5.8938  -5.8938  -5.8892  -5.8883
    -5.8578  -5.8573  -5.8573  -5.8172  -5.8172  -5.8113  -5.7562  -5.7219
    -5.7069  -5.6928  -5.6928  -5.6752  -5.6745  -5.6535  -5.6476  -5.6383
    -5.6383  -5.6348  -5.6269  -5.6269  -5.6214  -5.6213  -5.6203  -5.6059
    -5.6057  -5.6057  -5.6018  -5.5249  -5.5097  -5.5097  -5.4985  -5.4985
    -5.4971  -5.4933  -5.4707  -5.4707  -5.4676  -5.4480  -5.4475  -5.4475
    -5.4370  -5.4343  -5.4197  -5.3975  -5.3975  -5.3940  -5.3765  -5.3594
    -5.3563  -5.3171  -5.3112  -5.3112  -5.2817  -5.2817  -5.2748  -5.2321
    -5.2321  -5.2214  -5.1964  -5.1600  -5.1600  -5.1591  -5.1442  -5.1237
    -5.1182  -5.1112  -5.1108  -5.1108  -5.1102  -5.1095  -5.0980  -5.0963
    -5.0963  -5.0908  -5.0562  -5.0548  -5.0548  -5.0331  -5.0331  -5.0316
    -4.9876  -4.9758  -4.9751  -4.9751  -4.9631  -4.9631  -4.9628  -4.9592
[...]
     atom   15 type  1   force =    -0.00001756   -0.00000002   -0.00002305
     atom   16 type  1   force =     0.00000050   -0.00000002   -0.00001881
     atom   17 type  1   force =    -0.00000256   -0.00000666    0.00000623
     atom   18 type  1   force =    -0.00003204   -0.00001928    0.00001929
     atom   19 type  1   force =    -0.00002477   -0.00003297    0.00000000
     atom   20 type  1   force =    -0.00001756   -0.00002306    0.00000001
     atom   21 type  1   force =    -0.00000256   -0.00000621    0.00000664
     atom   22 type  1   force =    -0.00003202   -0.00001928   -0.00001929
     atom   23 type  1   force =    -0.00000257   -0.00000666   -0.00000625
     atom   24 type  1   force =    -0.00000254   -0.00000621   -0.00000663
     atom   25 type  1   force =     0.00000052   -0.00001877    0.00000001
     atom   26 type  1   force =     0.00001351    0.00001103    0.00001102
     atom   27 type  1   force =     0.00001357    0.00002238    0.00000664
     atom   28 type  1   force =     0.00001357    0.00000664    0.00002239
     atom   29 type  1   force =     0.00000756    0.00002098    0.00000589
     atom   30 type  1   force =     0.00002182    0.00001528    0.00000001
     atom   31 type  1   force =     0.00000097    0.00002346   -0.00000001
     atom   32 type  1   force =     0.00001271    0.00001898    0.00001437
     atom   33 type  1   force =     0.00000754    0.00002098   -0.00000589
     atom   34 type  1   force =     0.00001351    0.00001102   -0.00001103
     atom   35 type  1   force =     0.00001356    0.00002237   -0.00000664
     atom   36 type  1   force =     0.00001270    0.00001899   -0.00001437
     atom   37 type  1   force =     0.00001356    0.00000663   -0.00002238
     atom   38 type  1   force =     0.00000754    0.00000591    0.00002096
     atom   39 type  1   force =     0.00002184   -0.00000001    0.00001527
     atom   40 type  1   force =     0.00001270    0.00001438    0.00001898
     atom   41 type  1   force =     0.00000092   -0.00000000    0.00002346
     atom   42 type  1   force =     0.00001329    0.00000730    0.00000727
     atom   43 type  1   force =     0.00002140   -0.00000001   -0.00000001
     atom   44 type  1   force =     0.00002367    0.00001196    0.00000000
     atom   45 type  1   force =     0.00002366   -0.00000001    0.00001195
     atom   46 type  1   force =     0.00001328    0.00000727   -0.00000728
     atom   47 type  1   force =     0.00002181   -0.00000001   -0.00001528
     atom   48 type  1   force =     0.00001271    0.00001437   -0.00001900
     atom   49 type  1   force =     0.00002368   -0.00000001   -0.00001197
     atom   50 type  1   force =     0.00000753    0.00000589   -0.00002098
     atom   51 type  1   force =     0.00000097    0.00000001   -0.00002345
     atom   52 type  1   force =     0.00000756   -0.00000591    0.00002096
     atom   53 type  1   force =     0.00001349   -0.00001099    0.00001101
     atom   54 type  1   force =     0.00001272   -0.00001437    0.00001897
     atom   55 type  1   force =     0.00001358   -0.00000665    0.00002239
     atom   56 type  1   force =     0.00001330   -0.00000730    0.00000728
     atom   57 type  1   force =     0.00002184   -0.00001525    0.00000001
     atom   58 type  1   force =     0.00002368   -0.00001197    0.00000001
     atom   59 type  1   force =     0.00001272   -0.00001897    0.00001436
     atom   60 type  1   force =     0.00001329   -0.00000727   -0.00000729
     atom   61 type  1   force =     0.00001348   -0.00001097   -0.00001102
     atom   62 type  1   force =     0.00001273   -0.00001436   -0.00001898
     atom   63 type  1   force =     0.00001271   -0.00001896   -0.00001436
     atom   64 type  1   force =     0.00000756   -0.00000588   -0.00002097
     atom   65 type  1   force =     0.00001357   -0.00000663   -0.00002238
     atom   66 type  1   force =     0.00001357   -0.00002239    0.00000665
     atom   67 type  1   force =     0.00000756   -0.00002095    0.00000591
     atom   68 type  1   force =     0.00000090   -0.00002344    0.00000001
     atom   69 type  1   force =     0.00000755   -0.00002094   -0.00000590
     atom   70 type  1   force =     0.00001356   -0.00002239   -0.00000664
     atom   71 type  1   force =     0.00000187    0.00000750    0.00000753
     atom   72 type  1   force =     0.00001350    0.00002495   -0.00000435
     atom   73 type  1   force =    -0.00000061    0.00002500   -0.00000000
     atom   74 type  1   force =     0.00001290    0.00001934   -0.00000001
     atom   75 type  1   force =     0.00000029    0.00000977    0.00001035
     atom   76 type  1   force =     0.00001350    0.00002496    0.00000433
     atom   77 type  1   force =     0.00000186    0.00000751   -0.00000753
     atom   78 type  1   force =     0.00000029    0.00000978   -0.00001035
     atom   79 type  1   force =     0.00001348   -0.00000433    0.00002496
     atom   80 type  1   force =    -0.00000060    0.00000001    0.00002499
     atom   81 type  1   force =     0.00000031    0.00001035    0.00000978
     atom   82 type  1   force =     0.00001290    0.00000001    0.00001936
     atom   83 type  1   force =     0.00000597    0.00001298    0.00001299
     atom   84 type  1   force =     0.00001230   -0.00000000    0.00000001
     atom   85 type  1   force =    -0.00001186    0.00001540    0.00000000
     atom   86 type  1   force =    -0.00001185    0.00000001    0.00001539
     atom   87 type  1   force =     0.00000597    0.00001299   -0.00001299
     atom   88 type  1   force =    -0.00000058    0.00000001   -0.00002499
     atom   89 type  1   force =     0.00000031    0.00001037   -0.00000978
     atom   90 type  1   force =    -0.00001185    0.00000000   -0.00001539
     atom   91 type  1   force =     0.00001351   -0.00000432   -0.00002495
     atom   92 type  1   force =     0.00001289    0.00000001   -0.00001936
     atom   93 type  1   force =     0.00001349    0.00000434    0.00002497
     atom   94 type  1   force =     0.00000187   -0.00000753    0.00000753
     atom   95 type  1   force =     0.00000030   -0.00001035    0.00000979
     atom   96 type  1   force =     0.00000599   -0.00001298    0.00001297
     atom   97 type  1   force =    -0.00000059   -0.00002500   -0.00000000
     atom   98 type  1   force =    -0.00001186   -0.00001540   -0.00000001
     atom   99 type  1   force =     0.00000030   -0.00000979    0.00001034
     atom  100 type  1   force =     0.00000598   -0.00001298   -0.00001297
     atom  101 type  1   force =     0.00000185   -0.00000753   -0.00000752
     atom  102 type  1   force =     0.00000030   -0.00001036   -0.00000978
     atom  103 type  1   force =     0.00000030   -0.00000979   -0.00001034
     atom  104 type  1   force =     0.00001350    0.00000433   -0.00002496
     atom  105 type  1   force =     0.00001350   -0.00002497   -0.00000435
     atom  106 type  1   force =     0.00001291   -0.00001936   -0.00000000
     atom  107 type  1   force =     0.00001349   -0.00002497    0.00000434
     atom  108 type  1   force =     0.00000002   -0.00000037   -0.00000000
     atom  109 type  1   force =     0.00000002    0.00000001   -0.00000037
     atom  110 type  1   force =    -0.00001194   -0.00000170   -0.00000171
     atom  111 type  1   force =    -0.00001125    0.00000000    0.00000001
     atom  112 type  1   force =    -0.00001193   -0.00000170    0.00000171
     atom  113 type  1   force =     0.00000001   -0.00000000    0.00000036
     atom  114 type  1   force =    -0.00001195    0.00000171   -0.00000171
     atom  115 type  1   force =     0.00000003    0.00000038   -0.00000001
     atom  116 type  1   force =    -0.00001194    0.00000170    0.00000171
     atom  117 type  2   force =     0.00000009   -0.00000000   -0.00000000

     Total force =     0.003555     Total SCF correction =     0.000255
     Energy error            =      3.5E-05 Ry
     Gradient error          =      9.2E-04 Ry/Bohr

     bfgs converged in  14 scf cycles and  13 bfgs steps
     (criteria: energy <  1.0E-04 Ry, force <  1.0E-03 Ry/Bohr)

     End of BFGS Geometry Optimization

     Final energy             =  -24449.0205424052 Ry

     File ./out/calc.bfgs deleted, as requested
Begin final coordinates

ATOMIC_POSITIONS (angstrom)
Pt              -5.7874415913       -3.8446881577       -0.0000000000
Pt              -3.8341841129       -5.7918719824       -0.0000000000
Pt              -4.0486886345       -4.0445575533       -2.1156607753
Pt              -4.0486886345       -4.0445575533        2.1156607753
Pt              -5.7874415913        0.0000000000       -3.8446881577
Pt              -4.0486886345       -2.1156607753       -4.0445575533
Pt              -3.8341841129        0.0000000000       -5.7918719824
Pt              -5.8354420256       -1.9464682812       -1.9464682812
Pt              -6.1092119186        0.0000000000        0.0000000000
Pt              -3.8887834923       -1.9488093817       -0.0000000000
Pt              -3.8887834923       -0.0000000000       -1.9488093817
Pt              -5.8354420256       -1.9464682812        1.9464682812
Pt              -5.7874415913       -0.0000000000        3.8446881577
Pt              -4.0486886345       -2.1156607753        4.0445575533
Pt              -3.8887834923        0.0000000000        1.9488093817
Pt              -3.8341841129       -0.0000000000        5.7918719824
Pt              -4.0486886345        2.1156607753       -4.0445575533
Pt              -5.8354420256        1.9464682812       -1.9464682812
Pt              -5.7874415913        3.8446881577        0.0000000000
Pt              -3.8887834923        1.9488093817        0.0000000000
Pt              -4.0486886345        4.0445575533       -2.1156607753
Pt              -5.8354420256        1.9464682812        1.9464682812
Pt              -4.0486886345        2.1156607753        4.0445575533
Pt              -4.0486886345        4.0445575533        2.1156607753
Pt              -3.8341841129        5.7918719824        0.0000000000
Pt              -2.1243178282       -4.0449601916       -4.0449601916
Pt              -0.0004260023       -5.7872337777       -3.8377104998
Pt              -0.0004260023       -3.8377104998       -5.7872337777
Pt              -1.9505513082       -5.8369444797       -1.9509973471
Pt              -1.9629215583       -3.8794023394       -0.0000000000
Pt               0.0040316602       -5.9176783649       -0.0000000000
Pt              -0.0008945885       -3.8754237712       -1.9690564879
Pt              -1.9505513082       -5.8369444797        1.9509973471
Pt              -2.1243178282       -4.0449601916        4.0449601916
Pt              -0.0004260023       -5.7872337777        3.8377104998
Pt              -0.0008945885       -3.8754237712        1.9690564879
Pt              -0.0004260023       -3.8377104998        5.7872337777
Pt              -1.9505513082       -1.9509973471       -5.8369444797
Pt              -1.9629215583        0.0000000000       -3.8794023394
Pt              -0.0008945885       -1.9690564879       -3.8754237712
Pt               0.0040316602       -0.0000000000       -5.9176783649
Pt              -2.0345938549       -2.0254695304       -2.0254695304
Pt              -1.9505764537        0.0000000000        0.0000000000
Pt               0.0036077957       -1.9643728828       -0.0000000000
Pt               0.0036077957       -0.0000000000       -1.9643728828
Pt              -2.0345938549       -2.0254695304        2.0254695304
Pt              -1.9629215583       -0.0000000000        3.8794023394
Pt              -0.0008945885       -1.9690564879        3.8754237712
Pt               0.0036077957        0.0000000000        1.9643728828
Pt              -1.9505513082       -1.9509973471        5.8369444797
Pt               0.0040316602        0.0000000000        5.9176783649
Pt              -1.9505513082        1.9509973471       -5.8369444797
Pt              -2.1243178282        4.0449601916       -4.0449601916
Pt              -0.0008945885        1.9690564879       -3.8754237712
Pt              -0.0004260023        3.8377104998       -5.7872337777
Pt              -2.0345938549        2.0254695304       -2.0254695304
Pt              -1.9629215583        3.8794023394        0.0000000000
Pt               0.0036077957        1.9643728828        0.0000000000
Pt              -0.0008945885        3.8754237712       -1.9690564879
Pt              -2.0345938549        2.0254695304        2.0254695304
Pt              -2.1243178282        4.0449601916        4.0449601916
Pt              -0.0008945885        1.9690564879        3.8754237712
Pt              -0.0008945885        3.8754237712        1.9690564879
Pt              -1.9505513082        1.9509973471        5.8369444797
Pt              -0.0004260023        3.8377104998        5.7872337777
Pt              -0.0004260023        5.7872337777       -3.8377104998
Pt              -1.9505513082        5.8369444797       -1.9509973471
Pt               0.0040316602        5.9176783649        0.0000000000
Pt              -1.9505513082        5.8369444797        1.9509973471
Pt              -0.0004260023        5.7872337777        3.8377104998
Pt               2.1236314908       -4.0500614707       -4.0500614707
Pt               1.9518869408       -5.8352138638       -1.9495143012
Pt               1.9722144843       -3.8768246469       -0.0000000000
Pt               3.8430804118       -5.7884969946       -0.0000000000
Pt               4.0533780840       -4.0520781379       -2.1247133696
Pt               1.9518869408       -5.8352138638        1.9495143012
Pt               2.1236314908       -4.0500614707        4.0500614707
Pt               4.0533780840       -4.0520781379        2.1247133696
Pt               1.9518869408       -1.9495143012       -5.8352138638
Pt               1.9722144843       -0.0000000000       -3.8768246469
Pt               4.0533780840       -2.1247133696       -4.0520781379
Pt               3.8430804118        0.0000000000       -5.7884969946
Pt               2.0357992712       -2.0324148070       -2.0324148070
Pt               1.9636102635        0.0000000000        0.0000000000
Pt               3.8798511555       -1.9689440079        0.0000000000
Pt               3.8798511555        0.0000000000       -1.9689440079
Pt               2.0357992712       -2.0324148070        2.0324148070
Pt               1.9722144843        0.0000000000        3.8768246469
Pt               4.0533780840       -2.1247133696        4.0520781379
Pt               3.8798511555       -0.0000000000        1.9689440079
Pt               1.9518869408       -1.9495143012        5.8352138638
Pt               3.8430804118       -0.0000000000        5.7884969946
Pt               1.9518869408        1.9495143012       -5.8352138638
Pt               2.1236314908        4.0500614707       -4.0500614707
Pt               4.0533780840        2.1247133696       -4.0520781379
Pt               2.0357992712        2.0324148070       -2.0324148070
Pt               1.9722144843        3.8768246469        0.0000000000
Pt               3.8798511555        1.9689440079       -0.0000000000
Pt               4.0533780840        4.0520781379       -2.1247133696
Pt               2.0357992712        2.0324148070        2.0324148070
Pt               2.1236314908        4.0500614707        4.0500614707
Pt               4.0533780840        2.1247133696        4.0520781379
Pt               4.0533780840        4.0520781379        2.1247133696
Pt               1.9518869408        1.9495143012        5.8352138638
Pt               1.9518869408        5.8352138638       -1.9495143012
Pt               3.8430804118        5.7884969946        0.0000000000
Pt               1.9518869408        5.8352138638        1.9495143012
Pt               5.7910130576       -3.8411382262        0.0000000000
Pt               5.7910130576       -0.0000000000       -3.8411382262
Pt               5.8352948769       -1.9499505914       -1.9499505914
Pt               5.9226384286        0.0000000000        0.0000000000
Pt               5.8352948769       -1.9499505914        1.9499505914
Pt               5.7910130576        0.0000000000        3.8411382262
Pt               5.8352948769        1.9499505914       -1.9499505914
Pt               5.7910130576        3.8411382262       -0.0000000000
Pt               5.8352948769        1.9499505914        1.9499505914
H               -7.6726668219        0.0000000000        0.0000000000
End final coordinates



     Writing all to output data dir ./out/calc.save/ :
     XML data file, charge density, pseudopotentials, collected wavefunctions
 
     init_run     :     97.72s CPU    111.44s WALL (       1 calls)
     electrons    : 565311.44s CPU 572669.54s WALL (      13 calls)
     update_pot   :     92.18s CPU    103.08s WALL (      12 calls)
     forces       :    594.31s CPU    628.04s WALL (      13 calls)

     Called by init_run:
     wfcinit      :     74.75s CPU     77.93s WALL (       1 calls)
     wfcinit:atom :      0.29s CPU      0.46s WALL (       2 calls)
     wfcinit:wfcr :     72.41s CPU     75.18s WALL (       2 calls)
     potinit      :      8.68s CPU     18.65s WALL (       1 calls)
     hinit0       :      5.73s CPU      5.81s WALL (       1 calls)

     Called by electrons:
     c_bands      : 555973.84s CPU 562695.41s WALL (     201 calls)
     sum_band     :   6551.89s CPU   6820.97s WALL (     201 calls)
     v_of_rho     :   1453.38s CPU   1634.92s WALL (     203 calls)
     v_h          :     21.63s CPU     23.54s WALL (     203 calls)
     v_xc         :   1522.59s CPU   1714.26s WALL (     216 calls)
     newd         :    673.42s CPU    755.75s WALL (     203 calls)
     mix_rho      :    745.45s CPU    810.83s WALL (     201 calls)

     Called by c_bands:
     init_us_2    :    258.85s CPU    261.46s WALL (     832 calls)
     rcgdiagg     : 544845.15s CPU 551151.62s WALL (     432 calls)
     wfcrot       :  10983.09s CPU  11392.16s WALL (     386 calls)

     Called by sum_band:
     sum_band:wei :      0.65s CPU      0.65s WALL (     201 calls)
     sum_band:loo :   5579.49s CPU   5766.75s WALL (     201 calls)
     sum_band:buf :     45.29s CPU     45.80s WALL (     402 calls)
     sum_band:ini :    126.73s CPU    127.90s WALL (     402 calls)
     sum_band:cal :   1362.75s CPU   1372.76s WALL (     402 calls)
     sum_band:bec :      4.15s CPU      4.18s WALL (     402 calls)
     addusdens    :    941.55s CPU   1019.43s WALL (     201 calls)
                                        0.00s GPU  (     201 calls)
     addusd:skk   :     37.59s CPU     66.61s WALL (     402 calls)
                                        0.00s GPU  (     402 calls)

     Called by *cgdiagg:
     h_psi        : 226674.18s CPU 230716.83s WALL ( 1339527 calls)
     s_psi        : 182638.17s CPU 184062.81s WALL ( 2678668 calls)

     Called by h_psi:
     h_psi:calbec :  95624.16s CPU  96458.14s WALL ( 1339527 calls)
     vloc_psi     :  37531.89s CPU  40015.87s WALL ( 1339527 calls)
     add_vuspsi   :  93379.57s CPU  94107.30s WALL ( 1339527 calls)
     hs_1psi      : 308304.44s CPU 312687.20s WALL ( 1339141 calls)
     s_1psi       : 186009.70s CPU 187530.43s WALL ( 1339141 calls)

     General routines
     calbec       : 191280.12s CPU 192933.11s WALL ( 2679174 calls)
     fft          :    856.40s CPU    982.97s WALL (   14646 calls)
     ffts         :    361.74s CPU    422.44s WALL (   22378 calls)
     fftw         :  21807.59s CPU  24242.90s WALL ( 3333930 calls)
     interpolate  :     35.61s CPU     40.83s WALL (     406 calls)
 
     Parallel routines
 
     PWSCF        :   6d13h16m CPU   6d15h22m WALL

 
   This run was terminated on:   2:24:15   5May2025            

=------------------------------------------------------------------------------=
   JOB DONE.
=------------------------------------------------------------------------------=
