
     Program PWSCF v.7.3.1 starts on 17Jan2025 at  7:51:37 

     This program is part of the open-source Quantum ESPRESSO suite
     for quantum simulation of materials; please cite
         "P. Giannozzi et al., J. Phys.:Condens. Matter 21 395502 (2009);
         "P. Giannozzi et al., J. Phys.:Condens. Matter 29 465901 (2017);
         "P. Giannozzi et al., J. Chem. Phys. 152 154105 (2020);
          URL http://www.quantum-espresso.org", 
     in publications or presentations arising from this work. More details at
     http://www.quantum-espresso.org/quote

     Parallel version (MPI), running on    36 processors

     MPI processes distributed on     1 nodes
     183877 MiB available memory on the printing compute node when the environment starts
 
     Reading input from espresso.pwi
Warning: card   &CELL ignored
Warning: card      CELL_DOFREE = 'IBRAV' ignored
Warning: card / ignored

     Current dimensions of program PWSCF are:
     Max number of different atomic species (ntypx) = 10
     Max number of k-points (npk) =  40000
     Max angular momentum in pseudopotentials (lmaxx) =  4

     IMPORTANT: XC functional enforced from input :
     Exchange-correlation= RVV10
                           (   1   4  13   4  26   0   0)
     Any further DFT definition will be discarded
     Please, verify this is what you really want


     gamma-point specific algorithms are used
     Message from routine setup:
     using ibrav=0 with symmetry is DISCOURAGED, use correct ibrav instead
 
     R & G space division:  proc/nbgrp/npool/nimage =      36
     Subspace diagonalization in iterative solution of the eigenvalue problem:
     one sub-group per band group will be used
     scalapack distributed-memory algorithm (size of sub-group:  5*  5 procs)

 
     Parallelization info
     --------------------
     sticks:   dense  smooth     PW     G-vecs:    dense   smooth      PW
     Min        1227     612    151               194140    68620    8576
     Max        1230     614    154               194152    68634    8590
     Sum       44213   22097   5513              6989249  2470567  308947
 
     Using Slab Decomposition
 

     Title: 
     calc                                                                       


     bravais-lattice index     =            0
     lattice parameter (alat)  =      34.0151  a.u.
     unit-cell volume          =   39356.2868 (a.u.)^3
     number of atoms/cell      =           56
     number of atomic types    =            2
     number of electrons       =       881.00
     number of Kohn-Sham states=          529
     kinetic-energy cutoff     =      60.0000  Ry
     charge density cutoff     =     480.0000  Ry
     scf convergence threshold =      1.0E-06
     mixing beta               =       0.2000
     number of iterations used =            8  plain     mixing
     energy convergence thresh.=      1.0E-04
     force convergence thresh. =      1.0E-03
     Exchange-correlation= RVV10
                           (   1   4  13   4  26   0   0)
     nstep                     =        10000


     celldm(1)=  34.015070  celldm(2)=   0.000000  celldm(3)=   0.000000
     celldm(4)=   0.000000  celldm(5)=   0.000000  celldm(6)=   0.000000

     crystal axes: (cart. coord. in units of alat)
               a(1) = (   1.000000   0.000000   0.000000 )  
               a(2) = (   0.000000   1.000000   0.000000 )  
               a(3) = (   0.000000   0.000000   1.000000 )  

     reciprocal axes: (cart. coord. in units 2 pi/alat)
               b(1) = (  1.000000  0.000000  0.000000 )  
               b(2) = (  0.000000  1.000000  0.000000 )  
               b(3) = (  0.000000  0.000000  1.000000 )  


     PseudoPot. # 1 for Pt read from file:
     /home/james/work/espresso/SSSP_1.3.0_PBE_efficiency/pt_pbe_v1.4.uspp.F.UPF
     MD5 check sum: f09d6de1a584b5a045c4fc126da2d0c4
     Pseudo is Ultrasoft + core correction, Zval = 16.0
     Generated by new atomic code, or converted to UPF format
     Using radial grid of  985 points,  6 beta functions with: 
                l(1) =   0
                l(2) =   0
                l(3) =   1
                l(4) =   1
                l(5) =   2
                l(6) =   2
     Q(r) pseudized with  8 coefficients,  rinner =    1.300   1.300   1.300
                                                       1.300   1.300

     PseudoPot. # 2 for H  read from file:
     /home/james/work/espresso/SSSP_1.3.0_PBE_efficiency/H.pbe-rrkjus_psl.1.0.0.UPF
     MD5 check sum: f52b6d4d1c606e5624b1dc7b2218f220
     Pseudo is Ultrasoft, Zval =  1.0
     Generated using "atomic" code by A. Dal Corso  v.5.1
     Using radial grid of  929 points,  2 beta functions with: 
                l(1) =   0
                l(2) =   0
     Q(r) pseudized with 0 coefficients 


     atomic species   valence    mass     pseudopotential
     Pt               16.00   195.08400     Pt( 1.00)
     H                 1.00     1.00800     H ( 1.00)

     Starting magnetic structure 
     atomic species   magnetization
     Pt              0.010
     H               0.020

      8 Sym. Ops. (no inversion) found


                                    s                        frac. trans.

      isym =  1     identity                                     

 cryst.   s( 1) = (     1          0          0      )
                  (     0          1          0      )
                  (     0          0          1      )

 cart.    s( 1) = (  1.0000000  0.0000000  0.0000000 )
                  (  0.0000000  1.0000000  0.0000000 )
                  (  0.0000000  0.0000000  1.0000000 )


      isym =  2     180 deg rotation - cart. axis [1,0,0]        

 cryst.   s( 2) = (     1          0          0      )
                  (     0         -1          0      )
                  (     0          0         -1      )

 cart.    s( 2) = (  1.0000000  0.0000000  0.0000000 )
                  (  0.0000000 -1.0000000  0.0000000 )
                  (  0.0000000  0.0000000 -1.0000000 )


      isym =  3      90 deg rotation - cart. axis [-1,0,0]       

 cryst.   s( 3) = (     1          0          0      )
                  (     0          0         -1      )
                  (     0          1          0      )

 cart.    s( 3) = (  1.0000000  0.0000000  0.0000000 )
                  (  0.0000000  0.0000000  1.0000000 )
                  (  0.0000000 -1.0000000  0.0000000 )


      isym =  4      90 deg rotation - cart. axis [1,0,0]        

 cryst.   s( 4) = (     1          0          0      )
                  (     0          0          1      )
                  (     0         -1          0      )

 cart.    s( 4) = (  1.0000000  0.0000000  0.0000000 )
                  (  0.0000000  0.0000000 -1.0000000 )
                  (  0.0000000  1.0000000  0.0000000 )


      isym =  5     inv. 180 deg rotation - cart. axis [0,0,1]   

 cryst.   s( 5) = (     1          0          0      )
                  (     0          1          0      )
                  (     0          0         -1      )

 cart.    s( 5) = (  1.0000000  0.0000000  0.0000000 )
                  (  0.0000000  1.0000000  0.0000000 )
                  (  0.0000000  0.0000000 -1.0000000 )


      isym =  6     inv. 180 deg rotation - cart. axis [0,1,0]   

 cryst.   s( 6) = (     1          0          0      )
                  (     0         -1          0      )
                  (     0          0          1      )

 cart.    s( 6) = (  1.0000000  0.0000000  0.0000000 )
                  (  0.0000000 -1.0000000  0.0000000 )
                  (  0.0000000  0.0000000  1.0000000 )


      isym =  7     inv. 180 deg rotation - cart. axis [0,1,1]   

 cryst.   s( 7) = (     1          0          0      )
                  (     0          0         -1      )
                  (     0         -1          0      )

 cart.    s( 7) = (  1.0000000  0.0000000  0.0000000 )
                  (  0.0000000  0.0000000 -1.0000000 )
                  (  0.0000000 -1.0000000  0.0000000 )


      isym =  8     inv. 180 deg rotation - cart. axis [0,1,-1]  

 cryst.   s( 8) = (     1          0          0      )
                  (     0          0          1      )
                  (     0          1          0      )

 cart.    s( 8) = (  1.0000000  0.0000000  0.0000000 )
                  (  0.0000000  0.0000000  1.0000000 )
                  (  0.0000000  1.0000000  0.0000000 )


   Cartesian axes

     site n.     atom                  positions (alat units)
         1        Pt     tau(   1) = (  -0.2177778  -0.1088889  -0.1088889  )
         2        Pt     tau(   2) = (  -0.1088889  -0.2177778  -0.1088889  )
         3        Pt     tau(   3) = (  -0.1088889  -0.1088889  -0.2177778  )
         4        Pt     tau(   4) = (  -0.2177778  -0.2177778   0.0000000  )
         5        Pt     tau(   5) = (  -0.2177778  -0.1088889   0.1088889  )
         6        Pt     tau(   6) = (  -0.1088889  -0.2177778   0.1088889  )
         7        Pt     tau(   7) = (  -0.1088889  -0.1088889   0.0000000  )
         8        Pt     tau(   8) = (  -0.1088889  -0.1088889   0.2177778  )
         9        Pt     tau(   9) = (  -0.2177778   0.0000000  -0.2177778  )
        10        Pt     tau(  10) = (  -0.2177778   0.1088889  -0.1088889  )
        11        Pt     tau(  11) = (  -0.1088889   0.0000000  -0.1088889  )
        12        Pt     tau(  12) = (  -0.1088889   0.1088889  -0.2177778  )
        13        Pt     tau(  13) = (  -0.2177778   0.0000000   0.0000000  )
        14        Pt     tau(  14) = (  -0.2177778   0.1088889   0.1088889  )
        15        Pt     tau(  15) = (  -0.1088889   0.0000000   0.1088889  )
        16        Pt     tau(  16) = (  -0.1088889   0.1088889   0.0000000  )
        17        Pt     tau(  17) = (  -0.2177778   0.0000000   0.2177778  )
        18        Pt     tau(  18) = (  -0.1088889   0.1088889   0.2177778  )
        19        Pt     tau(  19) = (  -0.1088889   0.2177778  -0.1088889  )
        20        Pt     tau(  20) = (  -0.2177778   0.2177778   0.0000000  )
        21        Pt     tau(  21) = (  -0.1088889   0.2177778   0.1088889  )
        22        Pt     tau(  22) = (   0.0000000  -0.2177778  -0.2177778  )
        23        Pt     tau(  23) = (   0.0000000  -0.1088889  -0.1088889  )
        24        Pt     tau(  24) = (   0.1088889  -0.2177778  -0.1088889  )
        25        Pt     tau(  25) = (   0.1088889  -0.1088889  -0.2177778  )
        26        Pt     tau(  26) = (   0.0000000  -0.2177778   0.0000000  )
        27        Pt     tau(  27) = (   0.0000000  -0.1088889   0.1088889  )
        28        Pt     tau(  28) = (   0.1088889  -0.2177778   0.1088889  )
        29        Pt     tau(  29) = (   0.1088889  -0.1088889   0.0000000  )
        30        Pt     tau(  30) = (   0.0000000  -0.2177778   0.2177778  )
        31        Pt     tau(  31) = (   0.1088889  -0.1088889   0.2177778  )
        32        Pt     tau(  32) = (   0.0000000   0.0000000  -0.2177778  )
        33        Pt     tau(  33) = (   0.0000000   0.1088889  -0.1088889  )
        34        Pt     tau(  34) = (   0.1088889   0.0000000  -0.1088889  )
        35        Pt     tau(  35) = (   0.1088889   0.1088889  -0.2177778  )
        36        Pt     tau(  36) = (   0.0000000   0.0000000   0.0000000  )
        37        Pt     tau(  37) = (   0.0000000   0.1088889   0.1088889  )
        38        Pt     tau(  38) = (   0.1088889   0.0000000   0.1088889  )
        39        Pt     tau(  39) = (   0.1088889   0.1088889   0.0000000  )
        40        Pt     tau(  40) = (   0.0000000   0.0000000   0.2177778  )
        41        Pt     tau(  41) = (   0.1088889   0.1088889   0.2177778  )
        42        Pt     tau(  42) = (   0.0000000   0.2177778  -0.2177778  )
        43        Pt     tau(  43) = (   0.1088889   0.2177778  -0.1088889  )
        44        Pt     tau(  44) = (   0.0000000   0.2177778   0.0000000  )
        45        Pt     tau(  45) = (   0.1088889   0.2177778   0.1088889  )
        46        Pt     tau(  46) = (   0.0000000   0.2177778   0.2177778  )
        47        Pt     tau(  47) = (   0.2177778  -0.1088889  -0.1088889  )
        48        Pt     tau(  48) = (   0.2177778  -0.2177778   0.0000000  )
        49        Pt     tau(  49) = (   0.2177778  -0.1088889   0.1088889  )
        50        Pt     tau(  50) = (   0.2177778   0.0000000  -0.2177778  )
        51        Pt     tau(  51) = (   0.2177778   0.1088889  -0.1088889  )
        52        Pt     tau(  52) = (   0.2177778   0.0000000   0.0000000  )
        53        Pt     tau(  53) = (   0.2177778   0.1088889   0.1088889  )
        54        Pt     tau(  54) = (   0.2177778   0.0000000   0.2177778  )
        55        Pt     tau(  55) = (   0.2177778   0.2177778   0.0000000  )
        56        H      tau(  56) = (  -0.3177778   0.0000000   0.0000000  )

   Crystallographic axes

     site n.     atom                  positions (cryst. coord.)
         1        Pt     tau(   1) = ( -0.2177778 -0.1088889 -0.1088889  )
         2        Pt     tau(   2) = ( -0.1088889 -0.2177778 -0.1088889  )
         3        Pt     tau(   3) = ( -0.1088889 -0.1088889 -0.2177778  )
         4        Pt     tau(   4) = ( -0.2177778 -0.2177778  0.0000000  )
         5        Pt     tau(   5) = ( -0.2177778 -0.1088889  0.1088889  )
         6        Pt     tau(   6) = ( -0.1088889 -0.2177778  0.1088889  )
         7        Pt     tau(   7) = ( -0.1088889 -0.1088889  0.0000000  )
         8        Pt     tau(   8) = ( -0.1088889 -0.1088889  0.2177778  )
         9        Pt     tau(   9) = ( -0.2177778  0.0000000 -0.2177778  )
        10        Pt     tau(  10) = ( -0.2177778  0.1088889 -0.1088889  )
        11        Pt     tau(  11) = ( -0.1088889  0.0000000 -0.1088889  )
        12        Pt     tau(  12) = ( -0.1088889  0.1088889 -0.2177778  )
        13        Pt     tau(  13) = ( -0.2177778  0.0000000  0.0000000  )
        14        Pt     tau(  14) = ( -0.2177778  0.1088889  0.1088889  )
        15        Pt     tau(  15) = ( -0.1088889  0.0000000  0.1088889  )
        16        Pt     tau(  16) = ( -0.1088889  0.1088889  0.0000000  )
        17        Pt     tau(  17) = ( -0.2177778  0.0000000  0.2177778  )
        18        Pt     tau(  18) = ( -0.1088889  0.1088889  0.2177778  )
        19        Pt     tau(  19) = ( -0.1088889  0.2177778 -0.1088889  )
        20        Pt     tau(  20) = ( -0.2177778  0.2177778  0.0000000  )
        21        Pt     tau(  21) = ( -0.1088889  0.2177778  0.1088889  )
        22        Pt     tau(  22) = (  0.0000000 -0.2177778 -0.2177778  )
        23        Pt     tau(  23) = (  0.0000000 -0.1088889 -0.1088889  )
        24        Pt     tau(  24) = (  0.1088889 -0.2177778 -0.1088889  )
        25        Pt     tau(  25) = (  0.1088889 -0.1088889 -0.2177778  )
        26        Pt     tau(  26) = (  0.0000000 -0.2177778  0.0000000  )
        27        Pt     tau(  27) = (  0.0000000 -0.1088889  0.1088889  )
        28        Pt     tau(  28) = (  0.1088889 -0.2177778  0.1088889  )
        29        Pt     tau(  29) = (  0.1088889 -0.1088889  0.0000000  )
        30        Pt     tau(  30) = (  0.0000000 -0.2177778  0.2177778  )
        31        Pt     tau(  31) = (  0.1088889 -0.1088889  0.2177778  )
        32        Pt     tau(  32) = (  0.0000000  0.0000000 -0.2177778  )
        33        Pt     tau(  33) = (  0.0000000  0.1088889 -0.1088889  )
        34        Pt     tau(  34) = (  0.1088889  0.0000000 -0.1088889  )
        35        Pt     tau(  35) = (  0.1088889  0.1088889 -0.2177778  )
        36        Pt     tau(  36) = (  0.0000000  0.0000000  0.0000000  )
        37        Pt     tau(  37) = (  0.0000000  0.1088889  0.1088889  )
        38        Pt     tau(  38) = (  0.1088889  0.0000000  0.1088889  )
        39        Pt     tau(  39) = (  0.1088889  0.1088889  0.0000000  )
        40        Pt     tau(  40) = (  0.0000000  0.0000000  0.2177778  )
        41        Pt     tau(  41) = (  0.1088889  0.1088889  0.2177778  )
        42        Pt     tau(  42) = (  0.0000000  0.2177778 -0.2177778  )
        43        Pt     tau(  43) = (  0.1088889  0.2177778 -0.1088889  )
        44        Pt     tau(  44) = (  0.0000000  0.2177778  0.0000000  )
        45        Pt     tau(  45) = (  0.1088889  0.2177778  0.1088889  )
        46        Pt     tau(  46) = (  0.0000000  0.2177778  0.2177778  )
        47        Pt     tau(  47) = (  0.2177778 -0.1088889 -0.1088889  )
        48        Pt     tau(  48) = (  0.2177778 -0.2177778  0.0000000  )
        49        Pt     tau(  49) = (  0.2177778 -0.1088889  0.1088889  )
        50        Pt     tau(  50) = (  0.2177778  0.0000000 -0.2177778  )
        51        Pt     tau(  51) = (  0.2177778  0.1088889 -0.1088889  )
        52        Pt     tau(  52) = (  0.2177778  0.0000000  0.0000000  )
        53        Pt     tau(  53) = (  0.2177778  0.1088889  0.1088889  )
        54        Pt     tau(  54) = (  0.2177778  0.0000000  0.2177778  )
        55        Pt     tau(  55) = (  0.2177778  0.2177778  0.0000000  )
        56        H      tau(  56) = ( -0.3177778  0.0000000  0.0000000  )

     number of k points=     1  Gaussian smearing, width (Ry)=  0.0100
                       cart. coord. in units 2pi/alat
        k(    1) = (   0.0000000   0.0000000   0.0000000), wk =   1.0000000

                       cryst. coord.
        k(    1) = (   0.0000000   0.0000000   0.0000000), wk =   1.0000000

     Dense  grid:  3494625 G-vectors     FFT dimensions: ( 240, 240, 240)

     Smooth grid:  1235284 G-vectors     FFT dimensions: ( 180, 180, 180)

     Dynamical RAM for                 wfc:      34.63 MB

     Dynamical RAM for     wfc (w. buffer):     103.89 MB

     Dynamical RAM for           str. fact:       2.96 MB

     Dynamical RAM for           local pot:       0.00 MB

     Dynamical RAM for          nlocal pot:      64.94 MB

     Dynamical RAM for                qrad:       3.52 MB

     Dynamical RAM for          rho,v,vnew:      27.34 MB

     Dynamical RAM for               rhoin:       9.11 MB

     Dynamical RAM for            rho*nmix:      47.40 MB

     Dynamical RAM for           G-vectors:       5.82 MB

     Dynamical RAM for          h,s,v(r/c):       0.25 MB

     Dynamical RAM for          <psi|beta>:       4.00 MB

     Dynamical RAM for      wfcinit/wfcrot:      75.67 MB

     Dynamical RAM for           addusdens:     358.47 MB

     Dynamical RAM for          addusforce:     518.87 MB

     Estimated static dynamical RAM per process >     240.48 MB

     Estimated max dynamical RAM per process >     806.75 MB

     Estimated total dynamical RAM >      28.36 GB

     Atomic positions and unit cell read from directory:
     ./out/calc.save/
     Message from routine qexsd_readschema :
     xml data file ./out/calc.save/data-file-schema.xml not found
     Nothing found: using input atomic positions and unit cell

     Generating pointlists ...
     new r_m :   0.0412 (alat units)  1.4031 (a.u.) for type    1
     new r_m :   0.0412 (alat units)  1.4031 (a.u.) for type    2
     Cannot read rho : file not found

     Initial potential from superposition of free atoms

     starting charge     853.4994, renormalised to     881.0000

     negative rho (up, down):  5.273E+00 5.168E+00


---------------------------------------------------------------------------------
Carrying out rVV10 run using the following parameters:
Nqs =      20    Nr_points =    1024   r_max =   100.000
b_value =  6.30000    beta =  0.00901
     q_mesh =  0.00010000  0.00030000  0.00058939  0.00100810
               0.00161396  0.00249058  0.00375900  0.00559430
               0.00824984  0.01209221  0.01765183  0.02569619
               0.03733578  0.05417739  0.07854596  0.11380545
               0.16482331  0.23864234  0.34545298  0.50000000

Gradients computed in Reciprocal space

---------------------------------------------------------------------------------




     ----------------------------------------------------------------

     Non-local correlation energy =              9.743715559700247

     ----------------------------------------------------------------

     Message from routine qexsd_readschema :
     xml data file ./out/calc.save/data-file-schema.xml not found
     Cannot read wfcs: file not found
     Starting wfcs are  661 randomized atomic wfcs

     total cpu time spent up to now is       16.8 secs

     Self-consistent Calculation

     iteration #  1     ecut=    60.00 Ry     beta= 0.20
     CG style diagonalization

---- Real-time Memory Report at c_bands before calling an iterative solver
             0 MiB given to the printing process from OS
             0 MiB allocation reported by mallinfo(arena+hblkhd)
        173065 MiB available memory on the node where the printing process lives
------------------
     c_bands:  4 eigenvalues not converged
     c_bands:  4 eigenvalues not converged
     ethr =  1.00E-05,  avg # of iterations = 20.3

     negative rho (up, down):  5.080E+00 4.992E+00


     ----------------------------------------------------------------

     Non-local correlation energy =              9.364193750783414

     ----------------------------------------------------------------


     total cpu time spent up to now is     1526.2 secs

     total energy              =  -11541.30308740 Ry
     estimated scf accuracy    <     231.13664875 Ry

     total magnetization       =     2.64 Bohr mag/cell
     absolute magnetization    =     3.16 Bohr mag/cell

     iteration #  2     ecut=    60.00 Ry     beta= 0.20
     CG style diagonalization

---- Real-time Memory Report at c_bands before calling an iterative solver
             0 MiB given to the printing process from OS
             0 MiB allocation reported by mallinfo(arena+hblkhd)
        171429 MiB available memory on the node where the printing process lives
------------------
     ethr =  1.00E-02,  avg # of iterations =  4.7

     negative rho (up, down):  5.049E+00 4.967E+00


     ----------------------------------------------------------------

     Non-local correlation energy =              9.321092072113796

     ----------------------------------------------------------------


     total cpu time spent up to now is     1841.6 secs

     total energy              =  -11560.21928545 Ry
     estimated scf accuracy    <     484.70914944 Ry

     total magnetization       =    -1.07 Bohr mag/cell
     absolute magnetization    =     4.80 Bohr mag/cell

     iteration #  3     ecut=    60.00 Ry     beta= 0.20
     CG style diagonalization

---- Real-time Memory Report at c_bands before calling an iterative solver
             0 MiB given to the printing process from OS
             0 MiB allocation reported by mallinfo(arena+hblkhd)
        171330 MiB available memory on the node where the printing process lives
------------------
     ethr =  1.00E-02,  avg # of iterations =  3.6

     negative rho (up, down):  4.998E+00 4.924E+00


     ----------------------------------------------------------------

     Non-local correlation energy =              9.273919281508146

     ----------------------------------------------------------------


     total cpu time spent up to now is     2071.5 secs

     total energy              =  -11587.83869859 Ry
     estimated scf accuracy    <      14.36045560 Ry

     total magnetization       =     6.34 Bohr mag/cell
     absolute magnetization    =     7.73 Bohr mag/cell

     iteration #  4     ecut=    60.00 Ry     beta= 0.20
     CG style diagonalization

---- Real-time Memory Report at c_bands before calling an iterative solver
             0 MiB given to the printing process from OS
             0 MiB allocation reported by mallinfo(arena+hblkhd)
        171243 MiB available memory on the node where the printing process lives
------------------
     c_bands:  2 eigenvalues not converged
     c_bands:  1 eigenvalues not converged
     ethr =  1.63E-03,  avg # of iterations =  4.1

     negative rho (up, down):  4.989E+00 4.917E+00


     ----------------------------------------------------------------

     Non-local correlation energy =              9.267042740292570

     ----------------------------------------------------------------


     total cpu time spent up to now is     2344.3 secs

     total energy              =  -11587.59547256 Ry
     estimated scf accuracy    <     183.67071254 Ry

     total magnetization       =     1.96 Bohr mag/cell
     absolute magnetization    =     3.07 Bohr mag/cell

     iteration #  5     ecut=    60.00 Ry     beta= 0.20
     CG style diagonalization

---- Real-time Memory Report at c_bands before calling an iterative solver
             0 MiB given to the printing process from OS
             0 MiB allocation reported by mallinfo(arena+hblkhd)
        171149 MiB available memory on the node where the printing process lives
------------------
     ethr =  1.63E-03,  avg # of iterations =  3.0

     negative rho (up, down):  4.970E+00 4.902E+00


     ----------------------------------------------------------------

     Non-local correlation energy =              9.257170890561735

     ----------------------------------------------------------------


     total cpu time spent up to now is     2521.3 secs

     total energy              =  -11590.85642091 Ry
     estimated scf accuracy    <       9.81838682 Ry

     total magnetization       =     4.21 Bohr mag/cell
     absolute magnetization    =     4.49 Bohr mag/cell

     iteration #  6     ecut=    60.00 Ry     beta= 0.20
     CG style diagonalization

---- Real-time Memory Report at c_bands before calling an iterative solver
             0 MiB given to the printing process from OS
             0 MiB allocation reported by mallinfo(arena+hblkhd)
        171048 MiB available memory on the node where the printing process lives
------------------
     ethr =  1.11E-03,  avg # of iterations =  3.1

     negative rho (up, down):  4.947E+00 4.886E+00


     ----------------------------------------------------------------

     Non-local correlation energy =              9.246987649619115

     ----------------------------------------------------------------


     total cpu time spent up to now is     2703.1 secs

     total energy              =  -11590.06589078 Ry
     estimated scf accuracy    <      39.35629530 Ry

     total magnetization       =     3.45 Bohr mag/cell
     absolute magnetization    =     3.72 Bohr mag/cell

     iteration #  7     ecut=    60.00 Ry     beta= 0.20
     CG style diagonalization

---- Real-time Memory Report at c_bands before calling an iterative solver
             0 MiB given to the printing process from OS
             0 MiB allocation reported by mallinfo(arena+hblkhd)
        170956 MiB available memory on the node where the printing process lives
------------------
     ethr =  1.11E-03,  avg # of iterations =  3.0

     negative rho (up, down):  4.935E+00 4.877E+00


     ----------------------------------------------------------------

     Non-local correlation energy =              9.242330260461419

     ----------------------------------------------------------------


     total cpu time spent up to now is     2880.2 secs

     total energy              =  -11590.48829399 Ry
     estimated scf accuracy    <      41.34956474 Ry

     total magnetization       =     3.08 Bohr mag/cell
     absolute magnetization    =     3.36 Bohr mag/cell

     iteration #  8     ecut=    60.00 Ry     beta= 0.20
     CG style diagonalization

---- Real-time Memory Report at c_bands before calling an iterative solver
             0 MiB given to the printing process from OS
             0 MiB allocation reported by mallinfo(arena+hblkhd)
        170862 MiB available memory on the node where the printing process lives
------------------
     ethr =  1.11E-03,  avg # of iterations =  3.0

     negative rho (up, down):  4.926E+00 4.871E+00


     ----------------------------------------------------------------

     Non-local correlation energy =              9.239202847259129

     ----------------------------------------------------------------


     total cpu time spent up to now is     3056.3 secs

     total energy              =  -11590.98406603 Ry
     estimated scf accuracy    <      29.37342053 Ry

     total magnetization       =     3.14 Bohr mag/cell
     absolute magnetization    =     3.39 Bohr mag/cell

     iteration #  9     ecut=    60.00 Ry     beta= 0.20
     CG style diagonalization

---- Real-time Memory Report at c_bands before calling an iterative solver
             0 MiB given to the printing process from OS
             0 MiB allocation reported by mallinfo(arena+hblkhd)
        170767 MiB available memory on the node where the printing process lives
------------------
     ethr =  1.11E-03,  avg # of iterations =  3.0

     negative rho (up, down):  4.921E+00 4.868E+00


     ----------------------------------------------------------------

     Non-local correlation energy =              9.238189604302708

     ----------------------------------------------------------------


     total cpu time spent up to now is     3232.5 secs

     total energy              =  -11591.29178689 Ry
     estimated scf accuracy    <       7.94433231 Ry

     total magnetization       =     3.78 Bohr mag/cell
     absolute magnetization    =     4.00 Bohr mag/cell

     iteration # 10     ecut=    60.00 Ry     beta= 0.20
     CG style diagonalization

---- Real-time Memory Report at c_bands before calling an iterative solver
             0 MiB given to the printing process from OS
             0 MiB allocation reported by mallinfo(arena+hblkhd)
        170683 MiB available memory on the node where the printing process lives
------------------
     ethr =  9.02E-04,  avg # of iterations =  3.0

     negative rho (up, down):  4.914E+00 4.863E+00


     ----------------------------------------------------------------

     Non-local correlation energy =              9.236953409183648

     ----------------------------------------------------------------


     total cpu time spent up to now is     3408.7 secs

     total energy              =  -11591.39787639 Ry
     estimated scf accuracy    <       1.90085864 Ry

     total magnetization       =     3.70 Bohr mag/cell
     absolute magnetization    =     3.92 Bohr mag/cell

     iteration # 11     ecut=    60.00 Ry     beta= 0.20
     CG style diagonalization

---- Real-time Memory Report at c_bands before calling an iterative solver
             0 MiB given to the printing process from OS
             0 MiB allocation reported by mallinfo(arena+hblkhd)
        170657 MiB available memory on the node where the printing process lives
------------------
     ethr =  2.16E-04,  avg # of iterations =  3.1

     negative rho (up, down):  4.908E+00 4.859E+00


     ----------------------------------------------------------------

     Non-local correlation energy =              9.236737826394712

     ----------------------------------------------------------------


     total cpu time spent up to now is     3592.4 secs

     total energy              =  -11591.36637461 Ry
     estimated scf accuracy    <       1.64420502 Ry

     total magnetization       =     3.84 Bohr mag/cell
     absolute magnetization    =     4.06 Bohr mag/cell

     iteration # 12     ecut=    60.00 Ry     beta= 0.20
     CG style diagonalization

---- Real-time Memory Report at c_bands before calling an iterative solver
             0 MiB given to the printing process from OS
             0 MiB allocation reported by mallinfo(arena+hblkhd)
        170671 MiB available memory on the node where the printing process lives
------------------
     ethr =  1.87E-04,  avg # of iterations =  3.0

     negative rho (up, down):  4.903E+00 4.856E+00


     ----------------------------------------------------------------

     Non-local correlation energy =              9.237287589196146

     ----------------------------------------------------------------


     total cpu time spent up to now is     3768.6 secs

     total energy              =  -11591.29353880 Ry
     estimated scf accuracy    <       3.89833167 Ry

     total magnetization       =     3.85 Bohr mag/cell
     absolute magnetization    =     4.08 Bohr mag/cell

     iteration # 13     ecut=    60.00 Ry     beta= 0.20
     CG style diagonalization

---- Real-time Memory Report at c_bands before calling an iterative solver
             0 MiB given to the printing process from OS
             0 MiB allocation reported by mallinfo(arena+hblkhd)
        170674 MiB available memory on the node where the printing process lives
------------------
     ethr =  1.87E-04,  avg # of iterations =  3.0

     negative rho (up, down):  4.898E+00 4.853E+00


     ----------------------------------------------------------------

     Non-local correlation energy =              9.236906300443476

     ----------------------------------------------------------------


     total cpu time spent up to now is     3944.7 secs

     total energy              =  -11591.33994621 Ry
     estimated scf accuracy    <       2.02666315 Ry

     total magnetization       =     4.11 Bohr mag/cell
     absolute magnetization    =     4.32 Bohr mag/cell

     iteration # 14     ecut=    60.00 Ry     beta= 0.20
     CG style diagonalization

---- Real-time Memory Report at c_bands before calling an iterative solver
             0 MiB given to the printing process from OS
             0 MiB allocation reported by mallinfo(arena+hblkhd)
        170673 MiB available memory on the node where the printing process lives
------------------
     ethr =  1.87E-04,  avg # of iterations =  3.0

     negative rho (up, down):  4.894E+00 4.850E+00


     ----------------------------------------------------------------

     Non-local correlation energy =              9.236787924726661

     ----------------------------------------------------------------


     total cpu time spent up to now is     4120.8 secs

     total energy              =  -11591.36219477 Ry
     estimated scf accuracy    <       0.52091041 Ry

     total magnetization       =     4.06 Bohr mag/cell
     absolute magnetization    =     4.27 Bohr mag/cell

     iteration # 15     ecut=    60.00 Ry     beta= 0.20
     CG style diagonalization

---- Real-time Memory Report at c_bands before calling an iterative solver
             0 MiB given to the printing process from OS
             0 MiB allocation reported by mallinfo(arena+hblkhd)
        170651 MiB available memory on the node where the printing process lives
------------------
     ethr =  5.91E-05,  avg # of iterations =  3.1

     negative rho (up, down):  4.890E+00 4.849E+00


     ----------------------------------------------------------------

     Non-local correlation energy =              9.236938849469443

     ----------------------------------------------------------------


     total cpu time spent up to now is     4305.2 secs

     total energy              =  -11591.35601458 Ry
     estimated scf accuracy    <       0.82789926 Ry

     total magnetization       =     3.99 Bohr mag/cell
     absolute magnetization    =     4.21 Bohr mag/cell

     iteration # 16     ecut=    60.00 Ry     beta= 0.20
     CG style diagonalization

---- Real-time Memory Report at c_bands before calling an iterative solver
             0 MiB given to the printing process from OS
             0 MiB allocation reported by mallinfo(arena+hblkhd)
        170666 MiB available memory on the node where the printing process lives
------------------
     ethr =  5.91E-05,  avg # of iterations =  3.0

     negative rho (up, down):  4.885E+00 4.846E+00


     ----------------------------------------------------------------

     Non-local correlation energy =              9.237087400628660

     ----------------------------------------------------------------


     total cpu time spent up to now is     4481.3 secs

     total energy              =  -11591.36603381 Ry
     estimated scf accuracy    <       0.20369348 Ry

     total magnetization       =     4.03 Bohr mag/cell
     absolute magnetization    =     4.24 Bohr mag/cell

     iteration # 17     ecut=    60.00 Ry     beta= 0.20
     CG style diagonalization

---- Real-time Memory Report at c_bands before calling an iterative solver
             0 MiB given to the printing process from OS
             0 MiB allocation reported by mallinfo(arena+hblkhd)
        170667 MiB available memory on the node where the printing process lives
------------------
     c_bands:  1 eigenvalues not converged
     c_bands:  1 eigenvalues not converged
     ethr =  2.31E-05,  avg # of iterations =  3.1

     negative rho (up, down):  4.882E+00 4.844E+00


     ----------------------------------------------------------------

     Non-local correlation energy =              9.237009155753064

     ----------------------------------------------------------------


     total cpu time spent up to now is     4665.9 secs

     total energy              =  -11591.35702819 Ry
     estimated scf accuracy    <       0.17609950 Ry

     total magnetization       =     4.04 Bohr mag/cell
     absolute magnetization    =     4.26 Bohr mag/cell

     iteration # 18     ecut=    60.00 Ry     beta= 0.20
     CG style diagonalization

---- Real-time Memory Report at c_bands before calling an iterative solver
             0 MiB given to the printing process from OS
             0 MiB allocation reported by mallinfo(arena+hblkhd)
        170667 MiB available memory on the node where the printing process lives
------------------
     ethr =  2.00E-05,  avg # of iterations =  3.0

     negative rho (up, down):  4.880E+00 4.843E+00


     ----------------------------------------------------------------

     Non-local correlation energy =              9.236787942206035

     ----------------------------------------------------------------


     total cpu time spent up to now is     4845.8 secs

     total energy              =  -11591.32203209 Ry
     estimated scf accuracy    <       2.98878696 Ry

     total magnetization       =     3.91 Bohr mag/cell
     absolute magnetization    =     4.14 Bohr mag/cell

     iteration # 19     ecut=    60.00 Ry     beta= 0.20
     CG style diagonalization

---- Real-time Memory Report at c_bands before calling an iterative solver
             0 MiB given to the printing process from OS
             0 MiB allocation reported by mallinfo(arena+hblkhd)
        170668 MiB available memory on the node where the printing process lives
------------------
     ethr =  2.00E-05,  avg # of iterations =  3.0

     negative rho (up, down):  4.874E+00 4.840E+00


     ----------------------------------------------------------------

     Non-local correlation energy =              9.236151049936757

     ----------------------------------------------------------------


     total cpu time spent up to now is     5021.8 secs

     total energy              =  -11591.36162051 Ry
     estimated scf accuracy    <       0.16246554 Ry

     total magnetization       =     4.01 Bohr mag/cell
     absolute magnetization    =     4.23 Bohr mag/cell

     iteration # 20     ecut=    60.00 Ry     beta= 0.20
     CG style diagonalization

---- Real-time Memory Report at c_bands before calling an iterative solver
             0 MiB given to the printing process from OS
             0 MiB allocation reported by mallinfo(arena+hblkhd)
        170677 MiB available memory on the node where the printing process lives
------------------
     ethr =  1.84E-05,  avg # of iterations =  3.0

     negative rho (up, down):  4.873E+00 4.839E+00


     ----------------------------------------------------------------

     Non-local correlation energy =              9.235831054681674

     ----------------------------------------------------------------


     total cpu time spent up to now is     5198.2 secs

     total energy              =  -11591.36136437 Ry
     estimated scf accuracy    <       0.11948822 Ry

     total magnetization       =     4.02 Bohr mag/cell
     absolute magnetization    =     4.25 Bohr mag/cell

     iteration # 21     ecut=    60.00 Ry     beta= 0.20
     CG style diagonalization

---- Real-time Memory Report at c_bands before calling an iterative solver
             0 MiB given to the printing process from OS
             0 MiB allocation reported by mallinfo(arena+hblkhd)
        170672 MiB available memory on the node where the printing process lives
------------------
     ethr =  1.36E-05,  avg # of iterations =  3.0

     negative rho (up, down):  4.873E+00 4.839E+00


     ----------------------------------------------------------------

     Non-local correlation energy =              9.235787722778410

     ----------------------------------------------------------------


     total cpu time spent up to now is     5376.8 secs

     total energy              =  -11591.35953471 Ry
     estimated scf accuracy    <       0.19623116 Ry

     total magnetization       =     3.98 Bohr mag/cell
     absolute magnetization    =     4.21 Bohr mag/cell

     iteration # 22     ecut=    60.00 Ry     beta= 0.20
     CG style diagonalization

---- Real-time Memory Report at c_bands before calling an iterative solver
             0 MiB given to the printing process from OS
             0 MiB allocation reported by mallinfo(arena+hblkhd)
        170660 MiB available memory on the node where the printing process lives
------------------
     ethr =  1.36E-05,  avg # of iterations =  3.0

     negative rho (up, down):  4.870E+00 4.837E+00


     ----------------------------------------------------------------

     Non-local correlation energy =              9.234999294674331

     ----------------------------------------------------------------


     total cpu time spent up to now is     5553.0 secs

     total energy              =  -11591.35777224 Ry
     estimated scf accuracy    <       0.45286062 Ry

     total magnetization       =     3.99 Bohr mag/cell
     absolute magnetization    =     4.22 Bohr mag/cell

     iteration # 23     ecut=    60.00 Ry     beta= 0.20
     CG style diagonalization

---- Real-time Memory Report at c_bands before calling an iterative solver
             0 MiB given to the printing process from OS
             0 MiB allocation reported by mallinfo(arena+hblkhd)
        170668 MiB available memory on the node where the printing process lives
------------------
     ethr =  1.36E-05,  avg # of iterations =  3.0

     negative rho (up, down):  4.872E+00 4.839E+00


     ----------------------------------------------------------------

     Non-local correlation energy =              9.235469511593337

     ----------------------------------------------------------------


     total cpu time spent up to now is     5729.8 secs

     total energy              =  -11591.36334729 Ry
     estimated scf accuracy    <       0.12559369 Ry

     total magnetization       =     4.00 Bohr mag/cell
     absolute magnetization    =     4.23 Bohr mag/cell

     iteration # 24     ecut=    60.00 Ry     beta= 0.20
     CG style diagonalization

---- Real-time Memory Report at c_bands before calling an iterative solver
             0 MiB given to the printing process from OS
             0 MiB allocation reported by mallinfo(arena+hblkhd)
        170672 MiB available memory on the node where the printing process lives
------------------
     ethr =  1.36E-05,  avg # of iterations =  3.0

     negative rho (up, down):  4.870E+00 4.838E+00


     ----------------------------------------------------------------

     Non-local correlation energy =              9.234928528641122

     ----------------------------------------------------------------


     total cpu time spent up to now is     5905.9 secs

     total energy              =  -11591.36251498 Ry
     estimated scf accuracy    <       0.22911155 Ry

     total magnetization       =     4.00 Bohr mag/cell
     absolute magnetization    =     4.23 Bohr mag/cell

     iteration # 25     ecut=    60.00 Ry     beta= 0.20
     CG style diagonalization

---- Real-time Memory Report at c_bands before calling an iterative solver
             0 MiB given to the printing process from OS
             0 MiB allocation reported by mallinfo(arena+hblkhd)
        170658 MiB available memory on the node where the printing process lives
------------------
     ethr =  1.36E-05,  avg # of iterations =  3.0

     negative rho (up, down):  4.870E+00 4.838E+00


     ----------------------------------------------------------------

     Non-local correlation energy =              9.235040715924853

     ----------------------------------------------------------------


     total cpu time spent up to now is     6082.4 secs

     total energy              =  -11591.36488604 Ry
     estimated scf accuracy    <       0.09434167 Ry

     total magnetization       =     3.99 Bohr mag/cell
     absolute magnetization    =     4.23 Bohr mag/cell

     iteration # 26     ecut=    60.00 Ry     beta= 0.20
     CG style diagonalization

---- Real-time Memory Report at c_bands before calling an iterative solver
             0 MiB given to the printing process from OS
             0 MiB allocation reported by mallinfo(arena+hblkhd)
        170670 MiB available memory on the node where the printing process lives
------------------
     ethr =  1.07E-05,  avg # of iterations =  3.0

     negative rho (up, down):  4.870E+00 4.838E+00


     ----------------------------------------------------------------

     Non-local correlation energy =              9.234868482468432

     ----------------------------------------------------------------


     total cpu time spent up to now is     6258.7 secs

     total energy              =  -11591.36567969 Ry
     estimated scf accuracy    <       0.05451564 Ry

     total magnetization       =     3.98 Bohr mag/cell
     absolute magnetization    =     4.22 Bohr mag/cell

     iteration # 27     ecut=    60.00 Ry     beta= 0.20
     CG style diagonalization

---- Real-time Memory Report at c_bands before calling an iterative solver
             0 MiB given to the printing process from OS
             0 MiB allocation reported by mallinfo(arena+hblkhd)
        170670 MiB available memory on the node where the printing process lives
------------------
     ethr =  6.19E-06,  avg # of iterations =  3.0

     negative rho (up, down):  4.868E+00 4.837E+00


     ----------------------------------------------------------------

     Non-local correlation energy =              9.234389219264717

     ----------------------------------------------------------------


     total cpu time spent up to now is     6436.9 secs

     total energy              =  -11591.36646414 Ry
     estimated scf accuracy    <       0.01130432 Ry

     total magnetization       =     3.99 Bohr mag/cell
     absolute magnetization    =     4.22 Bohr mag/cell

     iteration # 28     ecut=    60.00 Ry     beta= 0.20
     CG style diagonalization

---- Real-time Memory Report at c_bands before calling an iterative solver
             0 MiB given to the printing process from OS
             0 MiB allocation reported by mallinfo(arena+hblkhd)
        170657 MiB available memory on the node where the printing process lives
------------------
     ethr =  1.28E-06,  avg # of iterations =  3.1

     negative rho (up, down):  4.869E+00 4.838E+00


     ----------------------------------------------------------------

     Non-local correlation energy =              9.234622697556265

     ----------------------------------------------------------------


     total cpu time spent up to now is     6625.4 secs

     total energy              =  -11591.36622865 Ry
     estimated scf accuracy    <       0.03443547 Ry

     total magnetization       =     4.01 Bohr mag/cell
     absolute magnetization    =     4.24 Bohr mag/cell

     iteration # 29     ecut=    60.00 Ry     beta= 0.20
     CG style diagonalization

---- Real-time Memory Report at c_bands before calling an iterative solver
             0 MiB given to the printing process from OS
             0 MiB allocation reported by mallinfo(arena+hblkhd)
        170662 MiB available memory on the node where the printing process lives
------------------
     ethr =  1.28E-06,  avg # of iterations =  3.0

     negative rho (up, down):  4.868E+00 4.837E+00


     ----------------------------------------------------------------

     Non-local correlation energy =              9.234324410702033

     ----------------------------------------------------------------


     total cpu time spent up to now is     6801.5 secs

     total energy              =  -11591.36656672 Ry
     estimated scf accuracy    <       0.01595779 Ry

     total magnetization       =     4.00 Bohr mag/cell
     absolute magnetization    =     4.24 Bohr mag/cell

     iteration # 30     ecut=    60.00 Ry     beta= 0.20
     CG style diagonalization

---- Real-time Memory Report at c_bands before calling an iterative solver
             0 MiB given to the printing process from OS
             0 MiB allocation reported by mallinfo(arena+hblkhd)
        170645 MiB available memory on the node where the printing process lives
------------------
     ethr =  1.28E-06,  avg # of iterations =  3.0

     negative rho (up, down):  4.868E+00 4.837E+00


     ----------------------------------------------------------------

     Non-local correlation energy =              9.234064243990236

     ----------------------------------------------------------------


     total cpu time spent up to now is     6977.8 secs

     total energy              =  -11591.36650759 Ry
     estimated scf accuracy    <       0.00387045 Ry

     total magnetization       =     4.00 Bohr mag/cell
     absolute magnetization    =     4.23 Bohr mag/cell

     iteration # 31     ecut=    60.00 Ry     beta= 0.20
     CG style diagonalization

---- Real-time Memory Report at c_bands before calling an iterative solver
             0 MiB given to the printing process from OS
             0 MiB allocation reported by mallinfo(arena+hblkhd)
        170656 MiB available memory on the node where the printing process lives
------------------
     ethr =  4.39E-07,  avg # of iterations =  3.0

     negative rho (up, down):  4.867E+00 4.837E+00


     ----------------------------------------------------------------

     Non-local correlation energy =              9.233819147818773

     ----------------------------------------------------------------


     total cpu time spent up to now is     7155.5 secs

     total energy              =  -11591.36625540 Ry
     estimated scf accuracy    <       0.00431445 Ry

     total magnetization       =     4.00 Bohr mag/cell
     absolute magnetization    =     4.24 Bohr mag/cell

     iteration # 32     ecut=    60.00 Ry     beta= 0.20
     CG style diagonalization

---- Real-time Memory Report at c_bands before calling an iterative solver
             0 MiB given to the printing process from OS
             0 MiB allocation reported by mallinfo(arena+hblkhd)
        170650 MiB available memory on the node where the printing process lives
------------------
     ethr =  4.39E-07,  avg # of iterations =  3.1

     negative rho (up, down):  4.867E+00 4.837E+00


     ----------------------------------------------------------------

     Non-local correlation energy =              9.233683192421388

     ----------------------------------------------------------------


     total cpu time spent up to now is     7337.5 secs

     total energy              =  -11591.36596847 Ry
     estimated scf accuracy    <       0.01814685 Ry

     total magnetization       =     4.00 Bohr mag/cell
     absolute magnetization    =     4.24 Bohr mag/cell

     iteration # 33     ecut=    60.00 Ry     beta= 0.20
     CG style diagonalization

---- Real-time Memory Report at c_bands before calling an iterative solver
             0 MiB given to the printing process from OS
             0 MiB allocation reported by mallinfo(arena+hblkhd)
        170666 MiB available memory on the node where the printing process lives
------------------
     ethr =  4.39E-07,  avg # of iterations =  3.0

     negative rho (up, down):  4.867E+00 4.837E+00


     ----------------------------------------------------------------

     Non-local correlation energy =              9.233553919912401

     ----------------------------------------------------------------


     total cpu time spent up to now is     7514.7 secs

     total energy              =  -11591.36600622 Ry
     estimated scf accuracy    <       0.00707823 Ry

     total magnetization       =     4.00 Bohr mag/cell
     absolute magnetization    =     4.24 Bohr mag/cell

     iteration # 34     ecut=    60.00 Ry     beta= 0.20
     CG style diagonalization

---- Real-time Memory Report at c_bands before calling an iterative solver
             0 MiB given to the printing process from OS
             0 MiB allocation reported by mallinfo(arena+hblkhd)
        170658 MiB available memory on the node where the printing process lives
------------------
     ethr =  4.39E-07,  avg # of iterations =  3.0

     negative rho (up, down):  4.866E+00 4.837E+00


     ----------------------------------------------------------------

     Non-local correlation energy =              9.233447466808236

     ----------------------------------------------------------------


     total cpu time spent up to now is     7692.4 secs

     total energy              =  -11591.36570461 Ry
     estimated scf accuracy    <       0.02183166 Ry

     total magnetization       =     4.01 Bohr mag/cell
     absolute magnetization    =     4.24 Bohr mag/cell

     iteration # 35     ecut=    60.00 Ry     beta= 0.20
     CG style diagonalization

---- Real-time Memory Report at c_bands before calling an iterative solver
             0 MiB given to the printing process from OS
             0 MiB allocation reported by mallinfo(arena+hblkhd)
        170654 MiB available memory on the node where the printing process lives
------------------
     ethr =  4.39E-07,  avg # of iterations =  3.1

     negative rho (up, down):  4.866E+00 4.837E+00


     ----------------------------------------------------------------

     Non-local correlation energy =              9.233227795974313

     ----------------------------------------------------------------


     total cpu time spent up to now is     7873.5 secs

     total energy              =  -11591.36573479 Ry
     estimated scf accuracy    <       0.01319155 Ry

     total magnetization       =     4.01 Bohr mag/cell
     absolute magnetization    =     4.25 Bohr mag/cell

     iteration # 36     ecut=    60.00 Ry     beta= 0.20
     CG style diagonalization

---- Real-time Memory Report at c_bands before calling an iterative solver
             0 MiB given to the printing process from OS
             0 MiB allocation reported by mallinfo(arena+hblkhd)
        170656 MiB available memory on the node where the printing process lives
------------------
     ethr =  4.39E-07,  avg # of iterations =  3.1

     negative rho (up, down):  4.866E+00 4.837E+00


     ----------------------------------------------------------------

     Non-local correlation energy =              9.233353339497311

     ----------------------------------------------------------------


     total cpu time spent up to now is     8056.2 secs

     total energy              =  -11591.36582318 Ry
     estimated scf accuracy    <       0.00860944 Ry

     total magnetization       =     4.02 Bohr mag/cell
     absolute magnetization    =     4.26 Bohr mag/cell

     iteration # 37     ecut=    60.00 Ry     beta= 0.20
     CG style diagonalization

---- Real-time Memory Report at c_bands before calling an iterative solver
             0 MiB given to the printing process from OS
             0 MiB allocation reported by mallinfo(arena+hblkhd)
        170649 MiB available memory on the node where the printing process lives
------------------
     ethr =  4.39E-07,  avg # of iterations =  3.0

     negative rho (up, down):  4.866E+00 4.837E+00


     ----------------------------------------------------------------

     Non-local correlation energy =              9.233110318485638

     ----------------------------------------------------------------


     total cpu time spent up to now is     8232.9 secs

     total energy              =  -11591.36582660 Ry
     estimated scf accuracy    <       0.00467395 Ry

     total magnetization       =     4.02 Bohr mag/cell
     absolute magnetization    =     4.26 Bohr mag/cell

     iteration # 38     ecut=    60.00 Ry     beta= 0.20
     CG style diagonalization

---- Real-time Memory Report at c_bands before calling an iterative solver
             0 MiB given to the printing process from OS
             0 MiB allocation reported by mallinfo(arena+hblkhd)
        170656 MiB available memory on the node where the printing process lives
------------------
     ethr =  4.39E-07,  avg # of iterations =  3.0

     negative rho (up, down):  4.866E+00 4.837E+00


     ----------------------------------------------------------------

     Non-local correlation energy =              9.233224326425805

     ----------------------------------------------------------------


     total cpu time spent up to now is     8412.6 secs

     total energy              =  -11591.36589430 Ry
     estimated scf accuracy    <       0.00322851 Ry

     total magnetization       =     4.02 Bohr mag/cell
     absolute magnetization    =     4.26 Bohr mag/cell

     iteration # 39     ecut=    60.00 Ry     beta= 0.20
     CG style diagonalization

---- Real-time Memory Report at c_bands before calling an iterative solver
             0 MiB given to the printing process from OS
             0 MiB allocation reported by mallinfo(arena+hblkhd)
        170655 MiB available memory on the node where the printing process lives
------------------
     ethr =  3.66E-07,  avg # of iterations =  3.0

     negative rho (up, down):  4.866E+00 4.837E+00


     ----------------------------------------------------------------

     Non-local correlation energy =              9.233141510052922

     ----------------------------------------------------------------


     total cpu time spent up to now is     8588.7 secs

     total energy              =  -11591.36580181 Ry
     estimated scf accuracy    <       0.01203070 Ry

     total magnetization       =     4.02 Bohr mag/cell
     absolute magnetization    =     4.26 Bohr mag/cell

     iteration # 40     ecut=    60.00 Ry     beta= 0.20
     CG style diagonalization

---- Real-time Memory Report at c_bands before calling an iterative solver
             0 MiB given to the printing process from OS
             0 MiB allocation reported by mallinfo(arena+hblkhd)
        170655 MiB available memory on the node where the printing process lives
------------------
     ethr =  3.66E-07,  avg # of iterations =  3.0

     negative rho (up, down):  4.866E+00 4.837E+00


     ----------------------------------------------------------------

     Non-local correlation energy =              9.233071532470916

     ----------------------------------------------------------------


     total cpu time spent up to now is     8764.7 secs

     total energy              =  -11591.36593148 Ry
     estimated scf accuracy    <       0.00087875 Ry

     total magnetization       =     4.02 Bohr mag/cell
     absolute magnetization    =     4.26 Bohr mag/cell

     iteration # 41     ecut=    60.00 Ry     beta= 0.20
     CG style diagonalization

---- Real-time Memory Report at c_bands before calling an iterative solver
             0 MiB given to the printing process from OS
             0 MiB allocation reported by mallinfo(arena+hblkhd)
        170652 MiB available memory on the node where the printing process lives
------------------
     ethr =  9.97E-08,  avg # of iterations =  3.0

     negative rho (up, down):  4.866E+00 4.837E+00


     ----------------------------------------------------------------

     Non-local correlation energy =              9.232989595396445

     ----------------------------------------------------------------


     total cpu time spent up to now is     8940.8 secs

     total energy              =  -11591.36592549 Ry
     estimated scf accuracy    <       0.00063544 Ry

     total magnetization       =     4.02 Bohr mag/cell
     absolute magnetization    =     4.27 Bohr mag/cell

     iteration # 42     ecut=    60.00 Ry     beta= 0.20
     CG style diagonalization

---- Real-time Memory Report at c_bands before calling an iterative solver
             0 MiB given to the printing process from OS
             0 MiB allocation reported by mallinfo(arena+hblkhd)
        170646 MiB available memory on the node where the printing process lives
------------------
     ethr =  7.21E-08,  avg # of iterations =  3.0

     negative rho (up, down):  4.866E+00 4.837E+00


     ----------------------------------------------------------------

     Non-local correlation energy =              9.232978615189872

     ----------------------------------------------------------------


     total cpu time spent up to now is     9117.0 secs

     total energy              =  -11591.36592017 Ry
     estimated scf accuracy    <       0.00102819 Ry

     total magnetization       =     4.03 Bohr mag/cell
     absolute magnetization    =     4.27 Bohr mag/cell

     iteration # 43     ecut=    60.00 Ry     beta= 0.20
     CG style diagonalization

---- Real-time Memory Report at c_bands before calling an iterative solver
             0 MiB given to the printing process from OS
             0 MiB allocation reported by mallinfo(arena+hblkhd)
        170647 MiB available memory on the node where the printing process lives
------------------
     ethr =  7.21E-08,  avg # of iterations =  3.0

     negative rho (up, down):  4.866E+00 4.837E+00


     ----------------------------------------------------------------

     Non-local correlation energy =              9.232908388273366

     ----------------------------------------------------------------


     total cpu time spent up to now is     9293.0 secs

     total energy              =  -11591.36592654 Ry
     estimated scf accuracy    <       0.00068439 Ry

     total magnetization       =     4.03 Bohr mag/cell
     absolute magnetization    =     4.27 Bohr mag/cell

     iteration # 44     ecut=    60.00 Ry     beta= 0.20
     CG style diagonalization

---- Real-time Memory Report at c_bands before calling an iterative solver
             0 MiB given to the printing process from OS
             0 MiB allocation reported by mallinfo(arena+hblkhd)
        170650 MiB available memory on the node where the printing process lives
------------------
     ethr =  7.21E-08,  avg # of iterations =  3.0

     negative rho (up, down):  4.866E+00 4.837E+00


     ----------------------------------------------------------------

     Non-local correlation energy =              9.232888143914561

     ----------------------------------------------------------------


     total cpu time spent up to now is     9470.0 secs

     total energy              =  -11591.36592376 Ry
     estimated scf accuracy    <       0.00065300 Ry

     total magnetization       =     4.04 Bohr mag/cell
     absolute magnetization    =     4.28 Bohr mag/cell

     iteration # 45     ecut=    60.00 Ry     beta= 0.20
     CG style diagonalization

---- Real-time Memory Report at c_bands before calling an iterative solver
             0 MiB given to the printing process from OS
             0 MiB allocation reported by mallinfo(arena+hblkhd)
        170649 MiB available memory on the node where the printing process lives
------------------
     ethr =  7.21E-08,  avg # of iterations =  3.0

     negative rho (up, down):  4.865E+00 4.837E+00


     ----------------------------------------------------------------

     Non-local correlation energy =              9.232779550903203

     ----------------------------------------------------------------


     total cpu time spent up to now is     9646.0 secs

     total energy              =  -11591.36594108 Ry
     estimated scf accuracy    <       0.00095650 Ry

     total magnetization       =     4.04 Bohr mag/cell
     absolute magnetization    =     4.28 Bohr mag/cell

     iteration # 46     ecut=    60.00 Ry     beta= 0.20
     CG style diagonalization

---- Real-time Memory Report at c_bands before calling an iterative solver
             0 MiB given to the printing process from OS
             0 MiB allocation reported by mallinfo(arena+hblkhd)
        170637 MiB available memory on the node where the printing process lives
------------------
     ethr =  7.21E-08,  avg # of iterations =  3.0

     negative rho (up, down):  4.865E+00 4.837E+00


     ----------------------------------------------------------------

     Non-local correlation energy =              9.232751571832335

     ----------------------------------------------------------------


     total cpu time spent up to now is     9822.2 secs

     total energy              =  -11591.36594652 Ry
     estimated scf accuracy    <       0.00044174 Ry

     total magnetization       =     4.05 Bohr mag/cell
     absolute magnetization    =     4.29 Bohr mag/cell

     iteration # 47     ecut=    60.00 Ry     beta= 0.20
     CG style diagonalization

---- Real-time Memory Report at c_bands before calling an iterative solver
             0 MiB given to the printing process from OS
             0 MiB allocation reported by mallinfo(arena+hblkhd)
        170648 MiB available memory on the node where the printing process lives
------------------
     ethr =  5.01E-08,  avg # of iterations =  3.0

     negative rho (up, down):  4.865E+00 4.837E+00


     ----------------------------------------------------------------

     Non-local correlation energy =              9.232719265288509

     ----------------------------------------------------------------


     total cpu time spent up to now is     9998.1 secs

     total energy              =  -11591.36595349 Ry
     estimated scf accuracy    <       0.00069257 Ry

     total magnetization       =     4.05 Bohr mag/cell
     absolute magnetization    =     4.29 Bohr mag/cell

     iteration # 48     ecut=    60.00 Ry     beta= 0.20
     CG style diagonalization

---- Real-time Memory Report at c_bands before calling an iterative solver
             0 MiB given to the printing process from OS
             0 MiB allocation reported by mallinfo(arena+hblkhd)
        170634 MiB available memory on the node where the printing process lives
------------------
     ethr =  5.01E-08,  avg # of iterations =  3.0

     negative rho (up, down):  4.865E+00 4.837E+00


     ----------------------------------------------------------------

     Non-local correlation energy =              9.232618376840882

     ----------------------------------------------------------------


     total cpu time spent up to now is    10174.1 secs

     total energy              =  -11591.36599475 Ry
     estimated scf accuracy    <       0.00032148 Ry

     total magnetization       =     4.06 Bohr mag/cell
     absolute magnetization    =     4.30 Bohr mag/cell

     iteration # 49     ecut=    60.00 Ry     beta= 0.20
     CG style diagonalization

---- Real-time Memory Report at c_bands before calling an iterative solver
             0 MiB given to the printing process from OS
             0 MiB allocation reported by mallinfo(arena+hblkhd)
        170649 MiB available memory on the node where the printing process lives
------------------
     ethr =  3.65E-08,  avg # of iterations =  3.0

     negative rho (up, down):  4.865E+00 4.837E+00


     ----------------------------------------------------------------

     Non-local correlation energy =              9.232643810446284

     ----------------------------------------------------------------


     total cpu time spent up to now is    10350.1 secs

     total energy              =  -11591.36596145 Ry
     estimated scf accuracy    <       0.00240800 Ry

     total magnetization       =     4.07 Bohr mag/cell
     absolute magnetization    =     4.31 Bohr mag/cell

     iteration # 50     ecut=    60.00 Ry     beta= 0.20
     CG style diagonalization

---- Real-time Memory Report at c_bands before calling an iterative solver
             0 MiB given to the printing process from OS
             0 MiB allocation reported by mallinfo(arena+hblkhd)
        170634 MiB available memory on the node where the printing process lives
------------------
     ethr =  3.65E-08,  avg # of iterations =  3.0

     negative rho (up, down):  4.865E+00 4.837E+00


     ----------------------------------------------------------------

     Non-local correlation energy =              9.232637225548187

     ----------------------------------------------------------------


     total cpu time spent up to now is    10526.0 secs

     total energy              =  -11591.36599174 Ry
     estimated scf accuracy    <       0.00026049 Ry

     total magnetization       =     4.06 Bohr mag/cell
     absolute magnetization    =     4.31 Bohr mag/cell

     iteration # 51     ecut=    60.00 Ry     beta= 0.20
     CG style diagonalization

---- Real-time Memory Report at c_bands before calling an iterative solver
             0 MiB given to the printing process from OS
             0 MiB allocation reported by mallinfo(arena+hblkhd)
        170643 MiB available memory on the node where the printing process lives
------------------
     ethr =  2.96E-08,  avg # of iterations =  3.0

     negative rho (up, down):  4.865E+00 4.837E+00


     ----------------------------------------------------------------

     Non-local correlation energy =              9.232602576537955

     ----------------------------------------------------------------


     total cpu time spent up to now is    10702.4 secs

     total energy              =  -11591.36600719 Ry
     estimated scf accuracy    <       0.00029845 Ry

     total magnetization       =     4.07 Bohr mag/cell
     absolute magnetization    =     4.31 Bohr mag/cell

     iteration # 52     ecut=    60.00 Ry     beta= 0.20
     CG style diagonalization

---- Real-time Memory Report at c_bands before calling an iterative solver
             0 MiB given to the printing process from OS
             0 MiB allocation reported by mallinfo(arena+hblkhd)
        170633 MiB available memory on the node where the printing process lives
------------------
     ethr =  2.96E-08,  avg # of iterations =  3.0

     negative rho (up, down):  4.865E+00 4.837E+00


     ----------------------------------------------------------------

     Non-local correlation energy =              9.232622285189510

     ----------------------------------------------------------------


     total cpu time spent up to now is    10878.4 secs

     total energy              =  -11591.36600133 Ry
     estimated scf accuracy    <       0.00029752 Ry

     total magnetization       =     4.07 Bohr mag/cell
     absolute magnetization    =     4.32 Bohr mag/cell

     iteration # 53     ecut=    60.00 Ry     beta= 0.20
     CG style diagonalization

---- Real-time Memory Report at c_bands before calling an iterative solver
             0 MiB given to the printing process from OS
             0 MiB allocation reported by mallinfo(arena+hblkhd)
        170635 MiB available memory on the node where the printing process lives
------------------
     ethr =  2.96E-08,  avg # of iterations =  3.0

     negative rho (up, down):  4.865E+00 4.837E+00


     ----------------------------------------------------------------

     Non-local correlation energy =              9.232587490393772

     ----------------------------------------------------------------


     total cpu time spent up to now is    11054.5 secs

     total energy              =  -11591.36601813 Ry
     estimated scf accuracy    <       0.00029162 Ry

     total magnetization       =     4.07 Bohr mag/cell
     absolute magnetization    =     4.32 Bohr mag/cell

     iteration # 54     ecut=    60.00 Ry     beta= 0.20
     CG style diagonalization

---- Real-time Memory Report at c_bands before calling an iterative solver
             0 MiB given to the printing process from OS
             0 MiB allocation reported by mallinfo(arena+hblkhd)
        170635 MiB available memory on the node where the printing process lives
------------------
     ethr =  2.96E-08,  avg # of iterations =  3.0

     negative rho (up, down):  4.865E+00 4.837E+00


     ----------------------------------------------------------------

     Non-local correlation energy =              9.232590622064306

     ----------------------------------------------------------------


     total cpu time spent up to now is    11230.3 secs

     total energy              =  -11591.36601867 Ry
     estimated scf accuracy    <       0.00013146 Ry

     total magnetization       =     4.08 Bohr mag/cell
     absolute magnetization    =     4.32 Bohr mag/cell

     iteration # 55     ecut=    60.00 Ry     beta= 0.20
     CG style diagonalization

---- Real-time Memory Report at c_bands before calling an iterative solver
             0 MiB given to the printing process from OS
             0 MiB allocation reported by mallinfo(arena+hblkhd)
        170631 MiB available memory on the node where the printing process lives
------------------
     ethr =  1.49E-08,  avg # of iterations =  3.0

     negative rho (up, down):  4.865E+00 4.837E+00


     ----------------------------------------------------------------

     Non-local correlation energy =              9.232559443610036

     ----------------------------------------------------------------


     total cpu time spent up to now is    11406.2 secs

     total energy              =  -11591.36603288 Ry
     estimated scf accuracy    <       0.00016167 Ry

     total magnetization       =     4.08 Bohr mag/cell
     absolute magnetization    =     4.32 Bohr mag/cell

     iteration # 56     ecut=    60.00 Ry     beta= 0.20
     CG style diagonalization

---- Real-time Memory Report at c_bands before calling an iterative solver
             0 MiB given to the printing process from OS
             0 MiB allocation reported by mallinfo(arena+hblkhd)
        170624 MiB available memory on the node where the printing process lives
------------------
     ethr =  1.49E-08,  avg # of iterations =  3.0

     negative rho (up, down):  4.865E+00 4.837E+00


     ----------------------------------------------------------------

     Non-local correlation energy =              9.232536130547079

     ----------------------------------------------------------------


     total cpu time spent up to now is    11582.0 secs

     total energy              =  -11591.36604364 Ry
     estimated scf accuracy    <       0.00004071 Ry

     total magnetization       =     4.09 Bohr mag/cell
     absolute magnetization    =     4.33 Bohr mag/cell

     iteration # 57     ecut=    60.00 Ry     beta= 0.20
     CG style diagonalization

---- Real-time Memory Report at c_bands before calling an iterative solver
             0 MiB given to the printing process from OS
             0 MiB allocation reported by mallinfo(arena+hblkhd)
        170645 MiB available memory on the node where the printing process lives
------------------
     ethr =  4.62E-09,  avg # of iterations =  3.0

     negative rho (up, down):  4.865E+00 4.837E+00


     ----------------------------------------------------------------

     Non-local correlation energy =              9.232532844992280

     ----------------------------------------------------------------


     total cpu time spent up to now is    11757.7 secs

     total energy              =  -11591.36604447 Ry
     estimated scf accuracy    <       0.00005542 Ry

     total magnetization       =     4.09 Bohr mag/cell
     absolute magnetization    =     4.34 Bohr mag/cell

     iteration # 58     ecut=    60.00 Ry     beta= 0.20
     CG style diagonalization

---- Real-time Memory Report at c_bands before calling an iterative solver
             0 MiB given to the printing process from OS
             0 MiB allocation reported by mallinfo(arena+hblkhd)
        170628 MiB available memory on the node where the printing process lives
------------------
     ethr =  4.62E-09,  avg # of iterations =  3.0

     negative rho (up, down):  4.865E+00 4.837E+00


     ----------------------------------------------------------------

     Non-local correlation energy =              9.232486749377289

     ----------------------------------------------------------------


     total cpu time spent up to now is    11933.5 secs

     total energy              =  -11591.36606371 Ry
     estimated scf accuracy    <       0.00003460 Ry

     total magnetization       =     4.09 Bohr mag/cell
     absolute magnetization    =     4.34 Bohr mag/cell

     iteration # 59     ecut=    60.00 Ry     beta= 0.20
     CG style diagonalization

---- Real-time Memory Report at c_bands before calling an iterative solver
             0 MiB given to the printing process from OS
             0 MiB allocation reported by mallinfo(arena+hblkhd)
        170637 MiB available memory on the node where the printing process lives
------------------
     ethr =  3.93E-09,  avg # of iterations =  3.0

     negative rho (up, down):  4.865E+00 4.837E+00


     ----------------------------------------------------------------

     Non-local correlation energy =              9.232479348110520

     ----------------------------------------------------------------


     total cpu time spent up to now is    12112.4 secs

     total energy              =  -11591.36606504 Ry
     estimated scf accuracy    <       0.00013172 Ry

     total magnetization       =     4.11 Bohr mag/cell
     absolute magnetization    =     4.36 Bohr mag/cell

     iteration # 60     ecut=    60.00 Ry     beta= 0.20
     CG style diagonalization

---- Real-time Memory Report at c_bands before calling an iterative solver
             0 MiB given to the printing process from OS
             0 MiB allocation reported by mallinfo(arena+hblkhd)
        170636 MiB available memory on the node where the printing process lives
------------------
     ethr =  3.93E-09,  avg # of iterations =  3.0

     negative rho (up, down):  4.866E+00 4.838E+00


     ----------------------------------------------------------------

     Non-local correlation energy =              9.232360485114222

     ----------------------------------------------------------------

 
     Magnetic moment per site  (integrated on atomic sphere of radius R)
     atom   1 (R=0.041)  charge=  9.6949  magn=  0.0382
     atom   2 (R=0.041)  charge=  9.6941  magn=  0.0402
     atom   3 (R=0.041)  charge=  9.6939  magn=  0.0386
     atom   4 (R=0.041)  charge=  9.7055  magn=  0.0616
     atom   5 (R=0.041)  charge=  9.6954  magn=  0.0402
     atom   6 (R=0.041)  charge=  9.6937  magn=  0.0407
     atom   7 (R=0.041)  charge=  9.6782  magn=  0.0592
     atom   8 (R=0.041)  charge=  9.6938  magn=  0.0404
     atom   9 (R=0.041)  charge=  9.7052  magn=  0.0540
     atom  10 (R=0.041)  charge=  9.6953  magn=  0.0333
     atom  11 (R=0.041)  charge=  9.6781  magn=  0.0543
     atom  12 (R=0.041)  charge=  9.6935  magn=  0.0357
     atom  13 (R=0.041)  charge=  9.6478  magn=  0.0137
     atom  14 (R=0.041)  charge=  9.6965  magn=  0.0378
     atom  15 (R=0.041)  charge=  9.6785  magn=  0.0580
[...]
     atom   12 type  1   force =     0.00886242   -0.00764682    0.02485622
     atom   13 type  1   force =     0.03462963    0.00000000    0.00000004
     atom   14 type  1   force =     0.02478497   -0.00813254   -0.00813250
     atom   15 type  1   force =    -0.00236874    0.00000003    0.00773879
     atom   16 type  1   force =    -0.00236866    0.00773874    0.00000003
     atom   17 type  1   force =     0.01266416   -0.00000000   -0.01308818
     atom   18 type  1   force =     0.00886229   -0.00764669   -0.02485582
     atom   19 type  1   force =     0.00886238   -0.02485604    0.00764673
     atom   20 type  1   force =     0.01266436   -0.01308845   -0.00000002
     atom   21 type  1   force =     0.00886232   -0.02485585   -0.00764669
     atom   22 type  1   force =     0.00050164    0.01234973    0.01234964
     atom   23 type  1   force =     0.00033385   -0.00462634   -0.00462638
     atom   24 type  1   force =    -0.00886826    0.02532347    0.00840795
     atom   25 type  1   force =    -0.00886825    0.00840801    0.02532344
     atom   26 type  1   force =     0.00111997    0.02988287   -0.00000005
     atom   27 type  1   force =     0.00033379   -0.00462626    0.00462626
     atom   28 type  1   force =    -0.00886831    0.02532366   -0.00840807
     atom   29 type  1   force =     0.00461893   -0.00464232   -0.00000007
     atom   30 type  1   force =     0.00050163    0.01235026   -0.01235020
     atom   31 type  1   force =    -0.00886835    0.00840811   -0.02532384
     atom   32 type  1   force =     0.00111999   -0.00000004    0.02988282
     atom   33 type  1   force =     0.00033385    0.00462625   -0.00462628
     atom   34 type  1   force =     0.00461898   -0.00000001   -0.00464240
     atom   35 type  1   force =    -0.00886829   -0.00840808    0.02532363
     atom   36 type  1   force =    -0.00038913    0.00000000   -0.00000002
     atom   37 type  1   force =     0.00033380    0.00462636    0.00462635
     atom   38 type  1   force =     0.00461889    0.00000003    0.00464227
     atom   39 type  1   force =     0.00461891    0.00464232   -0.00000003
     atom   40 type  1   force =     0.00111993    0.00000004   -0.02988283
     atom   41 type  1   force =    -0.00886832   -0.00840804   -0.02532364
     atom   42 type  1   force =     0.00050162   -0.01235033    0.01235026
     atom   43 type  1   force =    -0.00886831   -0.02532369    0.00840803
     atom   44 type  1   force =     0.00111997   -0.02988287    0.00000003
     atom   45 type  1   force =    -0.00886830   -0.02532350   -0.00840801
     atom   46 type  1   force =     0.00050162   -0.01234971   -0.01234966
     atom   47 type  1   force =    -0.02538535    0.00829885    0.00829878
     atom   48 type  1   force =    -0.01252122    0.01256058   -0.00000000
     atom   49 type  1   force =    -0.02538559    0.00829890   -0.00829889
     atom   50 type  1   force =    -0.01252111    0.00000001    0.01256041
     atom   51 type  1   force =    -0.02538544   -0.00829885    0.00829880
     atom   52 type  1   force =    -0.03062710    0.00000001   -0.00000006
     atom   53 type  1   force =    -0.02538563   -0.00829890   -0.00829890
     atom   54 type  1   force =    -0.01252174   -0.00000001   -0.01256105
     atom   55 type  1   force =    -0.01252131   -0.01256067   -0.00000003
     atom   56 type  2   force =     0.00000000    0.00000000    0.00000000
     The Hubbard contrib.    to forces
     atom    1 type  1   force =     0.00000000    0.00000000    0.00000000
     atom    2 type  1   force =     0.00000000    0.00000000    0.00000000
     atom    3 type  1   force =     0.00000000    0.00000000    0.00000000
     atom    4 type  1   force =     0.00000000    0.00000000    0.00000000
     atom    5 type  1   force =     0.00000000    0.00000000    0.00000000
     atom    6 type  1   force =     0.00000000    0.00000000    0.00000000
     atom    7 type  1   force =     0.00000000    0.00000000    0.00000000
     atom    8 type  1   force =     0.00000000    0.00000000    0.00000000
     atom    9 type  1   force =     0.00000000    0.00000000    0.00000000
     atom   10 type  1   force =     0.00000000    0.00000000    0.00000000
     atom   11 type  1   force =     0.00000000    0.00000000    0.00000000
     atom   12 type  1   force =     0.00000000    0.00000000    0.00000000
     atom   13 type  1   force =     0.00000000    0.00000000    0.00000000
     atom   14 type  1   force =     0.00000000    0.00000000    0.00000000
     atom   15 type  1   force =     0.00000000    0.00000000    0.00000000
     atom   16 type  1   force =     0.00000000    0.00000000    0.00000000
     atom   17 type  1   force =     0.00000000    0.00000000    0.00000000
     atom   18 type  1   force =     0.00000000    0.00000000    0.00000000
     atom   19 type  1   force =     0.00000000    0.00000000    0.00000000
     atom   20 type  1   force =     0.00000000    0.00000000    0.00000000
     atom   21 type  1   force =     0.00000000    0.00000000    0.00000000
     atom   22 type  1   force =     0.00000000    0.00000000    0.00000000
     atom   23 type  1   force =     0.00000000    0.00000000    0.00000000
     atom   24 type  1   force =     0.00000000    0.00000000    0.00000000
     atom   25 type  1   force =     0.00000000    0.00000000    0.00000000
     atom   26 type  1   force =     0.00000000    0.00000000    0.00000000
     atom   27 type  1   force =     0.00000000    0.00000000    0.00000000
     atom   28 type  1   force =     0.00000000    0.00000000    0.00000000
     atom   29 type  1   force =     0.00000000    0.00000000    0.00000000
     atom   30 type  1   force =     0.00000000    0.00000000    0.00000000
     atom   31 type  1   force =     0.00000000    0.00000000    0.00000000
     atom   32 type  1   force =     0.00000000    0.00000000    0.00000000
     atom   33 type  1   force =     0.00000000    0.00000000    0.00000000
     atom   34 type  1   force =     0.00000000    0.00000000    0.00000000
     atom   35 type  1   force =     0.00000000    0.00000000    0.00000000
     atom   36 type  1   force =     0.00000000    0.00000000    0.00000000
     atom   37 type  1   force =     0.00000000    0.00000000    0.00000000
     atom   38 type  1   force =     0.00000000    0.00000000    0.00000000
     atom   39 type  1   force =     0.00000000    0.00000000    0.00000000
     atom   40 type  1   force =     0.00000000    0.00000000    0.00000000
     atom   41 type  1   force =     0.00000000    0.00000000    0.00000000
     atom   42 type  1   force =     0.00000000    0.00000000    0.00000000
     atom   43 type  1   force =     0.00000000    0.00000000    0.00000000
     atom   44 type  1   force =     0.00000000    0.00000000    0.00000000
     atom   45 type  1   force =     0.00000000    0.00000000    0.00000000
     atom   46 type  1   force =     0.00000000    0.00000000    0.00000000
     atom   47 type  1   force =     0.00000000    0.00000000    0.00000000
     atom   48 type  1   force =     0.00000000    0.00000000    0.00000000
     atom   49 type  1   force =     0.00000000    0.00000000    0.00000000
     atom   50 type  1   force =     0.00000000    0.00000000    0.00000000
     atom   51 type  1   force =     0.00000000    0.00000000    0.00000000
     atom   52 type  1   force =     0.00000000    0.00000000    0.00000000
     atom   53 type  1   force =     0.00000000    0.00000000    0.00000000
     atom   54 type  1   force =     0.00000000    0.00000000    0.00000000
     atom   55 type  1   force =     0.00000000    0.00000000    0.00000000
     atom   56 type  2   force =     0.00000000    0.00000000    0.00000000
     The SCF correction term to forces
     atom    1 type  1   force =     0.00003101   -0.00005724    0.00001190
     atom    2 type  1   force =     0.00005956   -0.00002949    0.00001019
     atom    3 type  1   force =     0.00006780   -0.00005053   -0.00000721
     atom    4 type  1   force =     0.00003812   -0.00003273    0.00000898
     atom    5 type  1   force =     0.00002935   -0.00000423    0.00003445
     atom    6 type  1   force =     0.00000973   -0.00001187   -0.00002855
     atom    7 type  1   force =     0.00004078   -0.00004470    0.00001472
     atom    8 type  1   force =    -0.00001581    0.00003272    0.00000207
     atom    9 type  1   force =     0.00001174   -0.00001856   -0.00003098
     atom   10 type  1   force =     0.00001111    0.00004226    0.00003071
     atom   11 type  1   force =     0.00006261   -0.00002798    0.00002043
     atom   12 type  1   force =     0.00003559    0.00000395   -0.00001781
     atom   13 type  1   force =     0.00005263    0.00000236    0.00005591
     atom   14 type  1   force =     0.00004967    0.00002250    0.00004891
     atom   15 type  1   force =     0.00000664    0.00002996    0.00004596
     atom   16 type  1   force =     0.00003621    0.00004528    0.00007263
     atom   17 type  1   force =     0.00003233    0.00001963    0.00001317
     atom   18 type  1   force =     0.00001057    0.00001079   -0.00001088
     atom   19 type  1   force =     0.00002449    0.00003969    0.00005768
     atom   20 type  1   force =     0.00003787    0.00003095    0.00004716
     atom   21 type  1   force =     0.00003324   -0.00000149    0.00001408
     atom   22 type  1   force =     0.00001912    0.00000075    0.00003002
     atom   23 type  1   force =     0.00001868   -0.00006667   -0.00002223
     atom   24 type  1   force =    -0.00002035   -0.00000779   -0.00000840
     atom   25 type  1   force =     0.00000263   -0.00001883    0.00000563
     atom   26 type  1   force =    -0.00000341   -0.00002056   -0.00004047
     atom   27 type  1   force =    -0.00005854   -0.00001617   -0.00001540
     atom   28 type  1   force =    -0.00001674   -0.00004260   -0.00005518
     atom   29 type  1   force =    -0.00002336   -0.00006884   -0.00006315
     atom   30 type  1   force =    -0.00003427   -0.00000717   -0.00001650
     atom   31 type  1   force =    -0.00002772    0.00000000    0.00002221
     atom   32 type  1   force =     0.00004507   -0.00004647   -0.00001393
     atom   33 type  1   force =     0.00000885    0.00001524    0.00002536
     atom   34 type  1   force =     0.00000662   -0.00003818   -0.00005513
     atom   35 type  1   force =     0.00002801   -0.00003429   -0.00001134
     atom   36 type  1   force =    -0.00004154   -0.00000191    0.00000781
     atom   37 type  1   force =    -0.00006256    0.00005845    0.00003073
     atom   38 type  1   force =    -0.00005076    0.00002622    0.00000929
     atom   39 type  1   force =    -0.00002924    0.00005907    0.00000123
     atom   40 type  1   force =    -0.00006077    0.00004145    0.00001149
     atom   41 type  1   force =    -0.00005554    0.00004197    0.00001228
     atom   42 type  1   force =     0.00001104    0.00001254    0.00001494
     atom   43 type  1   force =     0.00000174    0.00002259    0.00003562
     atom   44 type  1   force =    -0.00001316    0.00002052    0.00004742
     atom   45 type  1   force =    -0.00004783    0.00003052   -0.00000410
     atom   46 type  1   force =    -0.00003575   -0.00000634   -0.00002816
     atom   47 type  1   force =    -0.00001095   -0.00003300   -0.00004542
     atom   48 type  1   force =    -0.00001335   -0.00003113   -0.00004508
     atom   49 type  1   force =     0.00002285   -0.00004383   -0.00002218
     atom   50 type  1   force =    -0.00000160   -0.00002703   -0.00001411
     atom   51 type  1   force =     0.00001341    0.00000522   -0.00003004
     atom   52 type  1   force =     0.00002222   -0.00000738   -0.00004764
     atom   53 type  1   force =     0.00000368    0.00005435    0.00000074
     atom   54 type  1   force =     0.00000981    0.00001839    0.00003008
     atom   55 type  1   force =    -0.00001017    0.00003256    0.00000035
     atom   56 type  2   force =    -0.00000504    0.00000007    0.00000198

     Total force =     0.003333     Total SCF correction =     0.000419
     SCF correction compared to forces is large: reduce conv_thr to get better values
     Energy error            =      3.0E-05 Ry
     Gradient error          =      9.0E-04 Ry/Bohr

     bfgs converged in  21 scf cycles and  20 bfgs steps
     (criteria: energy <  1.0E-04 Ry, force <  1.0E-03 Ry/Bohr)

     End of BFGS Geometry Optimization

     Final energy             =  -11591.5427425267 Ry

     File ./out/calc.bfgs deleted, as requested
Begin final coordinates

ATOMIC_POSITIONS (angstrom)
Pt              -3.9081471412       -1.8949266998       -1.8949266998
Pt              -1.8908275380       -3.9428870418       -1.9130889083
Pt              -1.8908275380       -1.9130889083       -3.9428870418
Pt              -3.7794287984       -3.8209676860        0.0000000000
Pt              -3.9081471412       -1.8949266998        1.8949266998
Pt              -1.8908275380       -3.9428870418        1.9130889083
Pt              -1.9236124164       -1.9237974706       -0.0000000000
Pt              -1.8908275380       -1.9130889083        3.9428870418
Pt              -3.7794287984        0.0000000000       -3.8209676860
Pt              -3.9081471412        1.8949266998       -1.8949266998
Pt              -1.9236124164        0.0000000000       -1.9237974706
Pt              -1.8908275380        1.9130889083       -3.9428870418
Pt              -4.3836839801        0.0000000000        0.0000000000
Pt              -3.9081471412        1.8949266998        1.8949266998
Pt              -1.9236124164       -0.0000000000        1.9237974706
Pt              -1.9236124164        1.9237974706        0.0000000000
Pt              -3.7794287984       -0.0000000000        3.8209676860
Pt              -1.8908275380        1.9130889083        3.9428870418
Pt              -1.8908275380        3.9428870418       -1.9130889083
Pt              -3.7794287984        3.8209676860       -0.0000000000
Pt              -1.8908275380        3.9428870418        1.9130889083
Pt               0.0066244704       -3.8152286472       -3.8152286472
Pt              -0.0028780727       -1.9262550080       -1.9262550080
Pt               1.9096773146       -3.9340709453       -1.9132292846
Pt               1.9096773146       -1.9132292846       -3.9340709453
Pt               0.0157348288       -4.1641168780       -0.0000000000
Pt              -0.0028780727       -1.9262550080        1.9262550080
Pt               1.9096773146       -3.9340709453        1.9132292846
Pt               1.9235068371       -1.9279958930       -0.0000000000
Pt               0.0066244704       -3.8152286472        3.8152286472
Pt               1.9096773146       -1.9132292846        3.9340709453
Pt               0.0157348288        0.0000000000       -4.1641168780
Pt              -0.0028780727        1.9262550080       -1.9262550080
Pt               1.9235068371        0.0000000000       -1.9279958930
Pt               1.9096773146        1.9132292846       -3.9340709453
Pt               0.0014347503        0.0000000000        0.0000000000
Pt              -0.0028780727        1.9262550080        1.9262550080
Pt               1.9235068371       -0.0000000000        1.9279958930
Pt               1.9235068371        1.9279958930        0.0000000000
Pt               0.0157348288       -0.0000000000        4.1641168780
Pt               1.9096773146        1.9132292846        3.9340709453
Pt               0.0066244704        3.8152286472       -3.8152286472
Pt               1.9096773146        3.9340709453       -1.9132292846
Pt               0.0157348288        4.1641168780        0.0000000000
Pt               1.9096773146        3.9340709453        1.9132292846
Pt               0.0066244704        3.8152286472        3.8152286472
Pt               3.9333250594       -1.9083579203       -1.9083579203
Pt               3.8077205778       -3.8067755090       -0.0000000000
Pt               3.9333250594       -1.9083579203        1.9083579203
Pt               3.8077205778       -0.0000000000       -3.8067755090
Pt               3.9333250594        1.9083579203       -1.9083579203
Pt               4.1511446091        0.0000000000        0.0000000000
Pt               3.9333250594        1.9083579203        1.9083579203
Pt               3.8077205778        0.0000000000        3.8067755090
Pt               3.8077205778        3.8067755090        0.0000000000
H               -5.9310749710        0.0000000000        0.0000000000
End final coordinates



     Writing all to output data dir ./out/calc.save/ :
     XML data file, charge density, pseudopotentials, collected wavefunctions
 
     init_run     :     15.40s CPU     16.56s WALL (       1 calls)
     electrons    : 164442.93s CPU 167774.04s WALL (      21 calls)
     update_pot   :     46.51s CPU     51.93s WALL (      20 calls)
     forces       :    145.60s CPU    156.30s WALL (      21 calls)

     Called by init_run:
     wfcinit      :      8.66s CPU      9.26s WALL (       1 calls)
     wfcinit:atom :      0.05s CPU      0.08s WALL (       2 calls)
     wfcinit:wfcr :      8.31s CPU      8.82s WALL (       2 calls)
     potinit      :      3.51s CPU      3.84s WALL (       1 calls)
     hinit0       :      0.89s CPU      0.98s WALL (       1 calls)

     Called by electrons:
     c_bands      : 157863.61s CPU 160617.65s WALL (     839 calls)
     sum_band     :   3943.68s CPU   4174.41s WALL (     839 calls)
     v_of_rho     :   1885.53s CPU   2105.25s WALL (     853 calls)
     v_h          :     26.10s CPU     28.49s WALL (     853 calls)
     v_xc         :   1904.77s CPU   2127.89s WALL (     874 calls)
     newd         :    672.75s CPU    763.54s WALL (     853 calls)
     mix_rho      :     77.78s CPU     83.54s WALL (     839 calls)

     Called by c_bands:
     init_us_2    :    174.91s CPU    176.98s WALL (    3400 calls)
     rcgdiagg     : 152269.54s CPU 154723.68s WALL (    1716 calls)
     wfcrot       :   5449.47s CPU   5728.51s WALL (    1662 calls)

     Called by sum_band:
     sum_band:wei :      1.44s CPU      1.45s WALL (     839 calls)
     sum_band:loo :   2939.97s CPU   3074.42s WALL (     839 calls)
     sum_band:buf :     32.84s CPU     33.27s WALL (    1678 calls)
     sum_band:ini :     87.26s CPU     88.16s WALL (    1678 calls)
     sum_band:cal :    491.00s CPU    493.97s WALL (    1678 calls)
     sum_band:bec :      3.69s CPU      3.72s WALL (    1678 calls)
     addusdens    :    958.16s CPU   1049.99s WALL (     839 calls)
                                        0.00s GPU  (     839 calls)
     addusd:skk   :     25.80s CPU     45.01s WALL (    1678 calls)
                                        0.00s GPU  (    1678 calls)

     Called by *cgdiagg:
     h_psi        :  69143.95s CPU  71044.15s WALL ( 2042545 calls)
     s_psi        :  47922.03s CPU  48376.37s WALL ( 4083428 calls)

     Called by h_psi:
     h_psi:calbec :  26460.33s CPU  26694.58s WALL ( 2042545 calls)
     vloc_psi     :  18340.95s CPU  19783.94s WALL ( 2042545 calls)
     add_vuspsi   :  24252.12s CPU  24480.07s WALL ( 2042545 calls)
     hs_1psi      :  88748.66s CPU  90620.64s WALL ( 2040883 calls)
     s_1psi       :  49005.85s CPU  49456.23s WALL ( 2040883 calls)

     General routines
     calbec       :  52183.35s CPU  52654.52s WALL ( 4085274 calls)
     fft          :   1003.06s CPU   1163.13s WALL (   59364 calls)
     ffts         :     12.89s CPU     14.65s WALL (    2545 calls)
     fftw         :  11266.36s CPU  12671.03s WALL ( 5407560 calls)
     interpolate  :     43.43s CPU     49.17s WALL (    1706 calls)
 
     Parallel routines
 
     PWSCF        :   1d21h44m CPU   1d22h41m WALL

 
   This run was terminated on:   6:32:40  19Jan2025            

=------------------------------------------------------------------------------=
   JOB DONE.
=------------------------------------------------------------------------------=
