
     Program PWSCF v.7.3.1 starts on 18Jan2025 at  3:39:51 

     This program is part of the open-source Quantum ESPRESSO suite
     for quantum simulation of materials; please cite
         "P. Giannozzi et al., J. Phys.:Condens. Matter 21 395502 (2009);
         "P. Giannozzi et al., J. Phys.:Condens. Matter 29 465901 (2017);
         "P. Giannozzi et al., J. Chem. Phys. 152 154105 (2020);
          URL http://www.quantum-espresso.org", 
     in publications or presentations arising from this work. More details at
     http://www.quantum-espresso.org/quote

     Parallel version (MPI), running on    36 processors

     MPI processes distributed on     1 nodes
     183801 MiB available memory on the printing compute node when the environment starts
 
     Reading input from espresso.pwi
Warning: card   &CELL ignored
Warning: card      CELL_DOFREE = 'IBRAV' ignored
Warning: card / ignored

     Current dimensions of program PWSCF are:
     Max number of different atomic species (ntypx) = 10
     Max number of k-points (npk) =  40000
     Max angular momentum in pseudopotentials (lmaxx) =  4

     IMPORTANT: XC functional enforced from input :
     Exchange-correlation= RVV10
                           (   1   4  13   4  26   0   0)
     Any further DFT definition will be discarded
     Please, verify this is what you really want


     gamma-point specific algorithms are used
     Message from routine setup:
     using ibrav=0 with symmetry is DISCOURAGED, use correct ibrav instead
 
     R & G space division:  proc/nbgrp/npool/nimage =      36
     Subspace diagonalization in iterative solution of the eigenvalue problem:
     one sub-group per band group will be used
     scalapack distributed-memory algorithm (size of sub-group:  5*  5 procs)

 
     Parallelization info
     --------------------
     sticks:   dense  smooth     PW     G-vecs:    dense   smooth      PW
     Min        1227     612    151               194140    68620    8576
     Max        1230     614    154               194152    68634    8590
     Sum       44213   22097   5513              6989249  2470567  308947
 
     Using Slab Decomposition
 

     Title: 
     calc                                                                       


     bravais-lattice index     =            0
     lattice parameter (alat)  =      34.0151  a.u.
     unit-cell volume          =   39356.2868 (a.u.)^3
     number of atoms/cell      =           56
     number of atomic types    =            2
     number of electrons       =       881.00
     number of Kohn-Sham states=          529
     kinetic-energy cutoff     =      60.0000  Ry
     charge density cutoff     =     480.0000  Ry
     scf convergence threshold =      1.0E-06
     mixing beta               =       0.2000
     number of iterations used =            8  plain     mixing
     energy convergence thresh.=      1.0E-04
     force convergence thresh. =      1.0E-03
     Exchange-correlation= RVV10
                           (   1   4  13   4  26   0   0)
     nstep                     =        10000


     celldm(1)=  34.015070  celldm(2)=   0.000000  celldm(3)=   0.000000
     celldm(4)=   0.000000  celldm(5)=   0.000000  celldm(6)=   0.000000

     crystal axes: (cart. coord. in units of alat)
               a(1) = (   1.000000   0.000000   0.000000 )  
               a(2) = (   0.000000   1.000000   0.000000 )  
               a(3) = (   0.000000   0.000000   1.000000 )  

     reciprocal axes: (cart. coord. in units 2 pi/alat)
               b(1) = (  1.000000  0.000000  0.000000 )  
               b(2) = (  0.000000  1.000000  0.000000 )  
               b(3) = (  0.000000  0.000000  1.000000 )  


     PseudoPot. # 1 for Pt read from file:
     /home/james/work/espresso/SSSP_1.3.0_PBE_efficiency/pt_pbe_v1.4.uspp.F.UPF
     MD5 check sum: f09d6de1a584b5a045c4fc126da2d0c4
     Pseudo is Ultrasoft + core correction, Zval = 16.0
     Generated by new atomic code, or converted to UPF format
     Using radial grid of  985 points,  6 beta functions with: 
                l(1) =   0
                l(2) =   0
                l(3) =   1
                l(4) =   1
                l(5) =   2
                l(6) =   2
     Q(r) pseudized with  8 coefficients,  rinner =    1.300   1.300   1.300
                                                       1.300   1.300

     PseudoPot. # 2 for H  read from file:
     /home/james/work/espresso/SSSP_1.3.0_PBE_efficiency/H.pbe-rrkjus_psl.1.0.0.UPF
     MD5 check sum: f52b6d4d1c606e5624b1dc7b2218f220
     Pseudo is Ultrasoft, Zval =  1.0
     Generated using "atomic" code by A. Dal Corso  v.5.1
     Using radial grid of  929 points,  2 beta functions with: 
                l(1) =   0
                l(2) =   0
     Q(r) pseudized with 0 coefficients 


     atomic species   valence    mass     pseudopotential
     Pt               16.00   195.08400     Pt( 1.00)
     H                 1.00     1.00800     H ( 1.00)

     Starting magnetic structure 
     atomic species   magnetization
     Pt              0.010
     H               0.020

      6 Sym. Ops. (no inversion) found


                                    s                        frac. trans.

      isym =  1     identity                                     

 cryst.   s( 1) = (     1          0          0      )
                  (     0          1          0      )
                  (     0          0          1      )

 cart.    s( 1) = (  1.0000000  0.0000000  0.0000000 )
                  (  0.0000000  1.0000000  0.0000000 )
                  (  0.0000000  0.0000000  1.0000000 )


      isym =  2     120 deg rotation - cart. axis [-1,-1,-1]     

 cryst.   s( 2) = (     0          0          1      )
                  (     1          0          0      )
                  (     0          1          0      )

 cart.    s( 2) = (  0.0000000  1.0000000  0.0000000 )
                  (  0.0000000  0.0000000  1.0000000 )
                  (  1.0000000  0.0000000  0.0000000 )


      isym =  3     120 deg rotation - cart. axis [1,1,1]        

 cryst.   s( 3) = (     0          1          0      )
                  (     0          0          1      )
                  (     1          0          0      )

 cart.    s( 3) = (  0.0000000  0.0000000  1.0000000 )
                  (  1.0000000  0.0000000  0.0000000 )
                  (  0.0000000  1.0000000  0.0000000 )


      isym =  4     inv. 180 deg rotation - cart. axis [1,-1,0]  

 cryst.   s( 4) = (     0          1          0      )
                  (     1          0          0      )
                  (     0          0          1      )

 cart.    s( 4) = (  0.0000000  1.0000000  0.0000000 )
                  (  1.0000000  0.0000000  0.0000000 )
                  (  0.0000000  0.0000000  1.0000000 )


      isym =  5     inv. 180 deg rotation - cart. axis [-1,0,1]  

 cryst.   s( 5) = (     0          0          1      )
                  (     0          1          0      )
                  (     1          0          0      )

 cart.    s( 5) = (  0.0000000  0.0000000  1.0000000 )
                  (  0.0000000  1.0000000  0.0000000 )
                  (  1.0000000  0.0000000  0.0000000 )


      isym =  6     inv. 180 deg rotation - cart. axis [0,1,-1]  

 cryst.   s( 6) = (     1          0          0      )
                  (     0          0          1      )
                  (     0          1          0      )

 cart.    s( 6) = (  1.0000000  0.0000000  0.0000000 )
                  (  0.0000000  0.0000000  1.0000000 )
                  (  0.0000000  1.0000000  0.0000000 )


   Cartesian axes

     site n.     atom                  positions (alat units)
         1        Pt     tau(   1) = (  -0.2177778  -0.1088889  -0.1088889  )
         2        Pt     tau(   2) = (  -0.1088889  -0.2177778  -0.1088889  )
         3        Pt     tau(   3) = (  -0.1088889  -0.1088889  -0.2177778  )
         4        Pt     tau(   4) = (  -0.2177778  -0.2177778   0.0000000  )
         5        Pt     tau(   5) = (  -0.2177778  -0.1088889   0.1088889  )
         6        Pt     tau(   6) = (  -0.1088889  -0.2177778   0.1088889  )
         7        Pt     tau(   7) = (  -0.1088889  -0.1088889   0.0000000  )
         8        Pt     tau(   8) = (  -0.1088889  -0.1088889   0.2177778  )
         9        Pt     tau(   9) = (  -0.2177778   0.0000000  -0.2177778  )
        10        Pt     tau(  10) = (  -0.2177778   0.1088889  -0.1088889  )
        11        Pt     tau(  11) = (  -0.1088889   0.0000000  -0.1088889  )
        12        Pt     tau(  12) = (  -0.1088889   0.1088889  -0.2177778  )
        13        Pt     tau(  13) = (  -0.2177778   0.0000000   0.0000000  )
        14        Pt     tau(  14) = (  -0.2177778   0.1088889   0.1088889  )
        15        Pt     tau(  15) = (  -0.1088889   0.0000000   0.1088889  )
        16        Pt     tau(  16) = (  -0.1088889   0.1088889   0.0000000  )
        17        Pt     tau(  17) = (  -0.2177778   0.0000000   0.2177778  )
        18        Pt     tau(  18) = (  -0.1088889   0.1088889   0.2177778  )
        19        Pt     tau(  19) = (  -0.1088889   0.2177778  -0.1088889  )
        20        Pt     tau(  20) = (  -0.2177778   0.2177778   0.0000000  )
        21        Pt     tau(  21) = (  -0.1088889   0.2177778   0.1088889  )
        22        Pt     tau(  22) = (   0.0000000  -0.2177778  -0.2177778  )
        23        Pt     tau(  23) = (   0.0000000  -0.1088889  -0.1088889  )
        24        Pt     tau(  24) = (   0.1088889  -0.2177778  -0.1088889  )
        25        Pt     tau(  25) = (   0.1088889  -0.1088889  -0.2177778  )
        26        Pt     tau(  26) = (   0.0000000  -0.2177778   0.0000000  )
        27        Pt     tau(  27) = (   0.0000000  -0.1088889   0.1088889  )
        28        Pt     tau(  28) = (   0.1088889  -0.2177778   0.1088889  )
        29        Pt     tau(  29) = (   0.1088889  -0.1088889   0.0000000  )
        30        Pt     tau(  30) = (   0.0000000  -0.2177778   0.2177778  )
        31        Pt     tau(  31) = (   0.1088889  -0.1088889   0.2177778  )
        32        Pt     tau(  32) = (   0.0000000   0.0000000  -0.2177778  )
        33        Pt     tau(  33) = (   0.0000000   0.1088889  -0.1088889  )
        34        Pt     tau(  34) = (   0.1088889   0.0000000  -0.1088889  )
        35        Pt     tau(  35) = (   0.1088889   0.1088889  -0.2177778  )
        36        Pt     tau(  36) = (   0.0000000   0.0000000   0.0000000  )
        37        Pt     tau(  37) = (   0.0000000   0.1088889   0.1088889  )
        38        Pt     tau(  38) = (   0.1088889   0.0000000   0.1088889  )
        39        Pt     tau(  39) = (   0.1088889   0.1088889   0.0000000  )
        40        Pt     tau(  40) = (   0.0000000   0.0000000   0.2177778  )
        41        Pt     tau(  41) = (   0.1088889   0.1088889   0.2177778  )
        42        Pt     tau(  42) = (   0.0000000   0.2177778  -0.2177778  )
        43        Pt     tau(  43) = (   0.1088889   0.2177778  -0.1088889  )
        44        Pt     tau(  44) = (   0.0000000   0.2177778   0.0000000  )
        45        Pt     tau(  45) = (   0.1088889   0.2177778   0.1088889  )
        46        Pt     tau(  46) = (   0.0000000   0.2177778   0.2177778  )
        47        Pt     tau(  47) = (   0.2177778  -0.1088889  -0.1088889  )
        48        Pt     tau(  48) = (   0.2177778  -0.2177778   0.0000000  )
        49        Pt     tau(  49) = (   0.2177778  -0.1088889   0.1088889  )
        50        Pt     tau(  50) = (   0.2177778   0.0000000  -0.2177778  )
        51        Pt     tau(  51) = (   0.2177778   0.1088889  -0.1088889  )
        52        Pt     tau(  52) = (   0.2177778   0.0000000   0.0000000  )
        53        Pt     tau(  53) = (   0.2177778   0.1088889   0.1088889  )
        54        Pt     tau(  54) = (   0.2177778   0.0000000   0.2177778  )
        55        Pt     tau(  55) = (   0.2177778   0.2177778   0.0000000  )
        56        H      tau(  56) = (  -0.1868827  -0.1868827  -0.1868827  )

   Crystallographic axes

     site n.     atom                  positions (cryst. coord.)
         1        Pt     tau(   1) = ( -0.2177778 -0.1088889 -0.1088889  )
         2        Pt     tau(   2) = ( -0.1088889 -0.2177778 -0.1088889  )
         3        Pt     tau(   3) = ( -0.1088889 -0.1088889 -0.2177778  )
         4        Pt     tau(   4) = ( -0.2177778 -0.2177778  0.0000000  )
         5        Pt     tau(   5) = ( -0.2177778 -0.1088889  0.1088889  )
         6        Pt     tau(   6) = ( -0.1088889 -0.2177778  0.1088889  )
         7        Pt     tau(   7) = ( -0.1088889 -0.1088889  0.0000000  )
         8        Pt     tau(   8) = ( -0.1088889 -0.1088889  0.2177778  )
         9        Pt     tau(   9) = ( -0.2177778  0.0000000 -0.2177778  )
        10        Pt     tau(  10) = ( -0.2177778  0.1088889 -0.1088889  )
        11        Pt     tau(  11) = ( -0.1088889  0.0000000 -0.1088889  )
        12        Pt     tau(  12) = ( -0.1088889  0.1088889 -0.2177778  )
        13        Pt     tau(  13) = ( -0.2177778  0.0000000  0.0000000  )
        14        Pt     tau(  14) = ( -0.2177778  0.1088889  0.1088889  )
        15        Pt     tau(  15) = ( -0.1088889  0.0000000  0.1088889  )
        16        Pt     tau(  16) = ( -0.1088889  0.1088889  0.0000000  )
        17        Pt     tau(  17) = ( -0.2177778  0.0000000  0.2177778  )
        18        Pt     tau(  18) = ( -0.1088889  0.1088889  0.2177778  )
        19        Pt     tau(  19) = ( -0.1088889  0.2177778 -0.1088889  )
        20        Pt     tau(  20) = ( -0.2177778  0.2177778  0.0000000  )
        21        Pt     tau(  21) = ( -0.1088889  0.2177778  0.1088889  )
        22        Pt     tau(  22) = (  0.0000000 -0.2177778 -0.2177778  )
        23        Pt     tau(  23) = (  0.0000000 -0.1088889 -0.1088889  )
        24        Pt     tau(  24) = (  0.1088889 -0.2177778 -0.1088889  )
        25        Pt     tau(  25) = (  0.1088889 -0.1088889 -0.2177778  )
        26        Pt     tau(  26) = (  0.0000000 -0.2177778  0.0000000  )
        27        Pt     tau(  27) = (  0.0000000 -0.1088889  0.1088889  )
        28        Pt     tau(  28) = (  0.1088889 -0.2177778  0.1088889  )
        29        Pt     tau(  29) = (  0.1088889 -0.1088889  0.0000000  )
        30        Pt     tau(  30) = (  0.0000000 -0.2177778  0.2177778  )
        31        Pt     tau(  31) = (  0.1088889 -0.1088889  0.2177778  )
        32        Pt     tau(  32) = (  0.0000000  0.0000000 -0.2177778  )
        33        Pt     tau(  33) = (  0.0000000  0.1088889 -0.1088889  )
        34        Pt     tau(  34) = (  0.1088889  0.0000000 -0.1088889  )
        35        Pt     tau(  35) = (  0.1088889  0.1088889 -0.2177778  )
        36        Pt     tau(  36) = (  0.0000000  0.0000000  0.0000000  )
        37        Pt     tau(  37) = (  0.0000000  0.1088889  0.1088889  )
        38        Pt     tau(  38) = (  0.1088889  0.0000000  0.1088889  )
        39        Pt     tau(  39) = (  0.1088889  0.1088889  0.0000000  )
        40        Pt     tau(  40) = (  0.0000000  0.0000000  0.2177778  )
        41        Pt     tau(  41) = (  0.1088889  0.1088889  0.2177778  )
        42        Pt     tau(  42) = (  0.0000000  0.2177778 -0.2177778  )
        43        Pt     tau(  43) = (  0.1088889  0.2177778 -0.1088889  )
        44        Pt     tau(  44) = (  0.0000000  0.2177778  0.0000000  )
        45        Pt     tau(  45) = (  0.1088889  0.2177778  0.1088889  )
        46        Pt     tau(  46) = (  0.0000000  0.2177778  0.2177778  )
        47        Pt     tau(  47) = (  0.2177778 -0.1088889 -0.1088889  )
        48        Pt     tau(  48) = (  0.2177778 -0.2177778  0.0000000  )
        49        Pt     tau(  49) = (  0.2177778 -0.1088889  0.1088889  )
        50        Pt     tau(  50) = (  0.2177778  0.0000000 -0.2177778  )
        51        Pt     tau(  51) = (  0.2177778  0.1088889 -0.1088889  )
        52        Pt     tau(  52) = (  0.2177778  0.0000000  0.0000000  )
        53        Pt     tau(  53) = (  0.2177778  0.1088889  0.1088889  )
        54        Pt     tau(  54) = (  0.2177778  0.0000000  0.2177778  )
        55        Pt     tau(  55) = (  0.2177778  0.2177778  0.0000000  )
        56        H      tau(  56) = ( -0.1868827 -0.1868827 -0.1868827  )

     number of k points=     1  Gaussian smearing, width (Ry)=  0.0100
                       cart. coord. in units 2pi/alat
        k(    1) = (   0.0000000   0.0000000   0.0000000), wk =   1.0000000

                       cryst. coord.
        k(    1) = (   0.0000000   0.0000000   0.0000000), wk =   1.0000000

     Dense  grid:  3494625 G-vectors     FFT dimensions: ( 240, 240, 240)

     Smooth grid:  1235284 G-vectors     FFT dimensions: ( 180, 180, 180)

     Dynamical RAM for                 wfc:      34.63 MB

     Dynamical RAM for     wfc (w. buffer):     103.89 MB

     Dynamical RAM for           str. fact:       2.96 MB

     Dynamical RAM for           local pot:       0.00 MB

     Dynamical RAM for          nlocal pot:      64.94 MB

     Dynamical RAM for                qrad:       3.52 MB

     Dynamical RAM for          rho,v,vnew:      27.34 MB

     Dynamical RAM for               rhoin:       9.11 MB

     Dynamical RAM for            rho*nmix:      47.40 MB

     Dynamical RAM for           G-vectors:       5.82 MB

     Dynamical RAM for          h,s,v(r/c):       0.25 MB

     Dynamical RAM for          <psi|beta>:       4.00 MB

     Dynamical RAM for      wfcinit/wfcrot:      75.67 MB

     Dynamical RAM for           addusdens:     358.47 MB

     Dynamical RAM for          addusforce:     518.87 MB

     Estimated static dynamical RAM per process >     240.48 MB

     Estimated max dynamical RAM per process >     806.75 MB

     Estimated total dynamical RAM >      28.36 GB

     Atomic positions and unit cell read from directory:
     ./out/calc.save/
     Atomic positions from file used, from input discarded
 
     Generating pointlists ...
     new r_m :   0.0463 (alat units)  1.5747 (a.u.) for type    1
     new r_m :   0.0463 (alat units)  1.5747 (a.u.) for type    2

     The initial density is read from file :
     ./out/calc.save/charge-density


     negative rho (up, down):  4.880E+00 4.852E+00


---------------------------------------------------------------------------------
Carrying out rVV10 run using the following parameters:
Nqs =      20    Nr_points =    1024   r_max =   100.000
b_value =  6.30000    beta =  0.00901
     q_mesh =  0.00010000  0.00030000  0.00058939  0.00100810
               0.00161396  0.00249058  0.00375900  0.00559430
               0.00824984  0.01209221  0.01765183  0.02569619
               0.03733578  0.05417739  0.07854596  0.11380545
               0.16482331  0.23864234  0.34545298  0.50000000

Gradients computed in Reciprocal space

---------------------------------------------------------------------------------




     ----------------------------------------------------------------

     Non-local correlation energy =              9.222953098984110

     ----------------------------------------------------------------

     Cannot read wfcs: file not found
     Starting wfcs are  661 randomized atomic wfcs

     total cpu time spent up to now is       18.0 secs

     Self-consistent Calculation

     iteration #  1     ecut=    60.00 Ry     beta= 0.20
     CG style diagonalization

---- Real-time Memory Report at c_bands before calling an iterative solver
             0 MiB given to the printing process from OS
             0 MiB allocation reported by mallinfo(arena+hblkhd)
        172811 MiB available memory on the node where the printing process lives
------------------
     c_bands:  5 eigenvalues not converged
     c_bands:  4 eigenvalues not converged
     ethr =  1.00E-05,  avg # of iterations = 12.0

     negative rho (up, down):  4.874E+00 4.846E+00


     ----------------------------------------------------------------

     Non-local correlation energy =              9.219542712986815

     ----------------------------------------------------------------


     total cpu time spent up to now is      917.1 secs

     total energy              =  -11585.22221840 Ry
     estimated scf accuracy    <      38.81442687 Ry

     total magnetization       =     3.84 Bohr mag/cell
     absolute magnetization    =     4.09 Bohr mag/cell

     iteration #  2     ecut=    60.00 Ry     beta= 0.20
     CG style diagonalization

---- Real-time Memory Report at c_bands before calling an iterative solver
             0 MiB given to the printing process from OS
             0 MiB allocation reported by mallinfo(arena+hblkhd)
        171262 MiB available memory on the node where the printing process lives
------------------
     ethr =  4.41E-03,  avg # of iterations =  3.2

     negative rho (up, down):  4.866E+00 4.839E+00


     ----------------------------------------------------------------

     Non-local correlation energy =              9.215555824677010

     ----------------------------------------------------------------


     total cpu time spent up to now is     1112.8 secs

     total energy              =  -11583.06320671 Ry
     estimated scf accuracy    <     186.92176284 Ry

     total magnetization       =     0.93 Bohr mag/cell
     absolute magnetization    =     1.29 Bohr mag/cell

     iteration #  3     ecut=    60.00 Ry     beta= 0.20
     CG style diagonalization

---- Real-time Memory Report at c_bands before calling an iterative solver
             0 MiB given to the printing process from OS
             0 MiB allocation reported by mallinfo(arena+hblkhd)
        171188 MiB available memory on the node where the printing process lives
------------------
     ethr =  4.41E-03,  avg # of iterations =  3.0

     negative rho (up, down):  4.864E+00 4.838E+00


     ----------------------------------------------------------------

     Non-local correlation energy =              9.214956325701834

     ----------------------------------------------------------------


     total cpu time spent up to now is     1289.9 secs

     total energy              =  -11589.62342216 Ry
     estimated scf accuracy    <      42.61207851 Ry

     total magnetization       =     1.68 Bohr mag/cell
     absolute magnetization    =     2.01 Bohr mag/cell

     iteration #  4     ecut=    60.00 Ry     beta= 0.20
     CG style diagonalization

---- Real-time Memory Report at c_bands before calling an iterative solver
             0 MiB given to the printing process from OS
             0 MiB allocation reported by mallinfo(arena+hblkhd)
        171083 MiB available memory on the node where the printing process lives
------------------
     ethr =  4.41E-03,  avg # of iterations =  3.0

     negative rho (up, down):  4.862E+00 4.837E+00


     ----------------------------------------------------------------

     Non-local correlation energy =              9.214284418831962

     ----------------------------------------------------------------


     total cpu time spent up to now is     1465.0 secs

     total energy              =  -11590.01339364 Ry
     estimated scf accuracy    <      97.77779940 Ry

     total magnetization       =     1.69 Bohr mag/cell
     absolute magnetization    =     1.98 Bohr mag/cell

     iteration #  5     ecut=    60.00 Ry     beta= 0.20
     CG style diagonalization

---- Real-time Memory Report at c_bands before calling an iterative solver
             0 MiB given to the printing process from OS
             0 MiB allocation reported by mallinfo(arena+hblkhd)
        170980 MiB available memory on the node where the printing process lives
------------------
     ethr =  4.41E-03,  avg # of iterations =  3.0

     negative rho (up, down):  4.861E+00 4.836E+00


     ----------------------------------------------------------------

     Non-local correlation energy =              9.213824602652426

     ----------------------------------------------------------------


     total cpu time spent up to now is     1640.2 secs

     total energy              =  -11590.92983046 Ry
     estimated scf accuracy    <      17.31190675 Ry

     total magnetization       =     3.15 Bohr mag/cell
     absolute magnetization    =     3.37 Bohr mag/cell

     iteration #  6     ecut=    60.00 Ry     beta= 0.20
     CG style diagonalization

---- Real-time Memory Report at c_bands before calling an iterative solver
             0 MiB given to the printing process from OS
             0 MiB allocation reported by mallinfo(arena+hblkhd)
        170869 MiB available memory on the node where the printing process lives
------------------
     ethr =  1.97E-03,  avg # of iterations =  3.0

     negative rho (up, down):  4.857E+00 4.834E+00


     ----------------------------------------------------------------

     Non-local correlation energy =              9.213365777675770

     ----------------------------------------------------------------


     total cpu time spent up to now is     1815.3 secs

     total energy              =  -11590.80353711 Ry
     estimated scf accuracy    <      13.85719337 Ry

     total magnetization       =     2.37 Bohr mag/cell
     absolute magnetization    =     2.63 Bohr mag/cell

     iteration #  7     ecut=    60.00 Ry     beta= 0.20
     CG style diagonalization

---- Real-time Memory Report at c_bands before calling an iterative solver
             0 MiB given to the printing process from OS
             0 MiB allocation reported by mallinfo(arena+hblkhd)
        170761 MiB available memory on the node where the printing process lives
------------------
     ethr =  1.57E-03,  avg # of iterations =  3.0

     negative rho (up, down):  4.857E+00 4.835E+00


     ----------------------------------------------------------------

     Non-local correlation energy =              9.213448499692543

     ----------------------------------------------------------------


     total cpu time spent up to now is     1990.4 secs

     total energy              =  -11591.27788218 Ry
     estimated scf accuracy    <       7.67322459 Ry

     total magnetization       =     2.77 Bohr mag/cell
     absolute magnetization    =     3.00 Bohr mag/cell

     iteration #  8     ecut=    60.00 Ry     beta= 0.20
     CG style diagonalization

---- Real-time Memory Report at c_bands before calling an iterative solver
             0 MiB given to the printing process from OS
             0 MiB allocation reported by mallinfo(arena+hblkhd)
        170661 MiB available memory on the node where the printing process lives
------------------
     ethr =  8.71E-04,  avg # of iterations =  3.0

     negative rho (up, down):  4.857E+00 4.835E+00


     ----------------------------------------------------------------

     Non-local correlation energy =              9.213526549430103

     ----------------------------------------------------------------


     total cpu time spent up to now is     2165.5 secs

     total energy              =  -11591.33121767 Ry
     estimated scf accuracy    <       8.89863204 Ry

     total magnetization       =     2.60 Bohr mag/cell
     absolute magnetization    =     2.83 Bohr mag/cell

     iteration #  9     ecut=    60.00 Ry     beta= 0.20
     CG style diagonalization

---- Real-time Memory Report at c_bands before calling an iterative solver
             0 MiB given to the printing process from OS
             0 MiB allocation reported by mallinfo(arena+hblkhd)
        170567 MiB available memory on the node where the printing process lives
------------------
     ethr =  8.71E-04,  avg # of iterations =  3.0

     negative rho (up, down):  4.857E+00 4.836E+00


     ----------------------------------------------------------------

     Non-local correlation energy =              9.213857338656265

     ----------------------------------------------------------------


     total cpu time spent up to now is     2340.8 secs

     total energy              =  -11591.44720984 Ry
     estimated scf accuracy    <       2.78745637 Ry

     total magnetization       =     2.74 Bohr mag/cell
     absolute magnetization    =     2.96 Bohr mag/cell

     iteration # 10     ecut=    60.00 Ry     beta= 0.20
     CG style diagonalization

---- Real-time Memory Report at c_bands before calling an iterative solver
             0 MiB given to the printing process from OS
             0 MiB allocation reported by mallinfo(arena+hblkhd)
        170478 MiB available memory on the node where the printing process lives
------------------
     ethr =  3.16E-04,  avg # of iterations =  3.0

     negative rho (up, down):  4.858E+00 4.837E+00


     ----------------------------------------------------------------

     Non-local correlation energy =              9.214353842892118

     ----------------------------------------------------------------


     total cpu time spent up to now is     2517.2 secs

     total energy              =  -11591.45384890 Ry
     estimated scf accuracy    <       0.64707618 Ry

     total magnetization       =     2.79 Bohr mag/cell
     absolute magnetization    =     3.00 Bohr mag/cell

     iteration # 11     ecut=    60.00 Ry     beta= 0.20
     CG style diagonalization

---- Real-time Memory Report at c_bands before calling an iterative solver
             0 MiB given to the printing process from OS
             0 MiB allocation reported by mallinfo(arena+hblkhd)
        170460 MiB available memory on the node where the printing process lives
------------------
     c_bands:  2 eigenvalues not converged
     c_bands:  1 eigenvalues not converged
     ethr =  7.34E-05,  avg # of iterations =  3.1

     negative rho (up, down):  4.858E+00 4.836E+00


     ----------------------------------------------------------------

     Non-local correlation energy =              9.214273968326953

     ----------------------------------------------------------------


     total cpu time spent up to now is     2704.7 secs

     total energy              =  -11591.40992739 Ry
     estimated scf accuracy    <       3.44509266 Ry

     total magnetization       =     2.73 Bohr mag/cell
     absolute magnetization    =     2.95 Bohr mag/cell

     iteration # 12     ecut=    60.00 Ry     beta= 0.20
     CG style diagonalization

---- Real-time Memory Report at c_bands before calling an iterative solver
             0 MiB given to the printing process from OS
             0 MiB allocation reported by mallinfo(arena+hblkhd)
        170465 MiB available memory on the node where the printing process lives
------------------
     ethr =  7.34E-05,  avg # of iterations =  3.0

     negative rho (up, down):  4.859E+00 4.838E+00


     ----------------------------------------------------------------

     Non-local correlation energy =              9.214503162908915

     ----------------------------------------------------------------


     total cpu time spent up to now is     2881.3 secs

     total energy              =  -11591.43244458 Ry
     estimated scf accuracy    <       2.18414678 Ry

     total magnetization       =     2.86 Bohr mag/cell
     absolute magnetization    =     3.08 Bohr mag/cell

     iteration # 13     ecut=    60.00 Ry     beta= 0.20
     CG style diagonalization

---- Real-time Memory Report at c_bands before calling an iterative solver
             0 MiB given to the printing process from OS
             0 MiB allocation reported by mallinfo(arena+hblkhd)
        170457 MiB available memory on the node where the printing process lives
------------------
     ethr =  7.34E-05,  avg # of iterations =  3.0

     negative rho (up, down):  4.860E+00 4.839E+00


     ----------------------------------------------------------------

     Non-local correlation energy =              9.214685045436688

     ----------------------------------------------------------------


     total cpu time spent up to now is     3056.6 secs

     total energy              =  -11591.45958538 Ry
     estimated scf accuracy    <       0.56237526 Ry

     total magnetization       =     2.79 Bohr mag/cell
     absolute magnetization    =     3.00 Bohr mag/cell

     iteration # 14     ecut=    60.00 Ry     beta= 0.20
     CG style diagonalization

---- Real-time Memory Report at c_bands before calling an iterative solver
             0 MiB given to the printing process from OS
             0 MiB allocation reported by mallinfo(arena+hblkhd)
        170466 MiB available memory on the node where the printing process lives
------------------
     ethr =  6.38E-05,  avg # of iterations =  3.0

     negative rho (up, down):  4.861E+00 4.840E+00


     ----------------------------------------------------------------

     Non-local correlation energy =              9.214929360519704

     ----------------------------------------------------------------


     total cpu time spent up to now is     3231.8 secs

     total energy              =  -11591.46557997 Ry
     estimated scf accuracy    <       0.19893660 Ry

     total magnetization       =     2.77 Bohr mag/cell
     absolute magnetization    =     2.98 Bohr mag/cell

     iteration # 15     ecut=    60.00 Ry     beta= 0.20
     CG style diagonalization

---- Real-time Memory Report at c_bands before calling an iterative solver
             0 MiB given to the printing process from OS
             0 MiB allocation reported by mallinfo(arena+hblkhd)
        170450 MiB available memory on the node where the printing process lives
------------------
     ethr =  2.26E-05,  avg # of iterations =  3.0

     negative rho (up, down):  4.862E+00 4.841E+00


     ----------------------------------------------------------------

     Non-local correlation energy =              9.215230763918738

     ----------------------------------------------------------------


     total cpu time spent up to now is     3408.6 secs

     total energy              =  -11591.45010760 Ry
     estimated scf accuracy    <       1.07545192 Ry

     total magnetization       =     2.74 Bohr mag/cell
     absolute magnetization    =     2.95 Bohr mag/cell

     iteration # 16     ecut=    60.00 Ry     beta= 0.20
     CG style diagonalization

---- Real-time Memory Report at c_bands before calling an iterative solver
             0 MiB given to the printing process from OS
             0 MiB allocation reported by mallinfo(arena+hblkhd)
        170464 MiB available memory on the node where the printing process lives
------------------
     ethr =  2.26E-05,  avg # of iterations =  3.0

     negative rho (up, down):  4.864E+00 4.843E+00


     ----------------------------------------------------------------

     Non-local correlation energy =              9.215643059818444

     ----------------------------------------------------------------


     total cpu time spent up to now is     3583.9 secs

     total energy              =  -11591.45739950 Ry
     estimated scf accuracy    <       0.27022835 Ry

     total magnetization       =     2.83 Bohr mag/cell
     absolute magnetization    =     3.03 Bohr mag/cell

     iteration # 17     ecut=    60.00 Ry     beta= 0.20
     CG style diagonalization

---- Real-time Memory Report at c_bands before calling an iterative solver
             0 MiB given to the printing process from OS
             0 MiB allocation reported by mallinfo(arena+hblkhd)
        170471 MiB available memory on the node where the printing process lives
------------------
     ethr =  2.26E-05,  avg # of iterations =  3.0

     negative rho (up, down):  4.866E+00 4.845E+00


     ----------------------------------------------------------------

     Non-local correlation energy =              9.215997655082917

     ----------------------------------------------------------------


     total cpu time spent up to now is     3760.2 secs

     total energy              =  -11591.45962014 Ry
     estimated scf accuracy    <       0.07614089 Ry

     total magnetization       =     2.76 Bohr mag/cell
     absolute magnetization    =     2.96 Bohr mag/cell

     iteration # 18     ecut=    60.00 Ry     beta= 0.20
     CG style diagonalization

---- Real-time Memory Report at c_bands before calling an iterative solver
             0 MiB given to the printing process from OS
             0 MiB allocation reported by mallinfo(arena+hblkhd)
        170450 MiB available memory on the node where the printing process lives
------------------
     ethr =  8.64E-06,  avg # of iterations =  3.0

     negative rho (up, down):  4.865E+00 4.844E+00


     ----------------------------------------------------------------

     Non-local correlation energy =              9.215850352662432

     ----------------------------------------------------------------


     total cpu time spent up to now is     3936.5 secs

     total energy              =  -11591.45574521 Ry
     estimated scf accuracy    <       0.24814384 Ry

     total magnetization       =     2.74 Bohr mag/cell
     absolute magnetization    =     2.94 Bohr mag/cell

     iteration # 19     ecut=    60.00 Ry     beta= 0.20
     CG style diagonalization

---- Real-time Memory Report at c_bands before calling an iterative solver
             0 MiB given to the printing process from OS
             0 MiB allocation reported by mallinfo(arena+hblkhd)
        170458 MiB available memory on the node where the printing process lives
------------------
     ethr =  8.64E-06,  avg # of iterations =  3.0

     negative rho (up, down):  4.865E+00 4.844E+00


     ----------------------------------------------------------------

     Non-local correlation energy =              9.215798458663254

     ----------------------------------------------------------------


     total cpu time spent up to now is     4112.9 secs

     total energy              =  -11591.45088708 Ry
     estimated scf accuracy    <       0.82452000 Ry

     total magnetization       =     2.74 Bohr mag/cell
     absolute magnetization    =     2.94 Bohr mag/cell

     iteration # 20     ecut=    60.00 Ry     beta= 0.20
     CG style diagonalization

---- Real-time Memory Report at c_bands before calling an iterative solver
             0 MiB given to the printing process from OS
             0 MiB allocation reported by mallinfo(arena+hblkhd)
        170456 MiB available memory on the node where the printing process lives
------------------
     ethr =  8.64E-06,  avg # of iterations =  3.0

     negative rho (up, down):  4.866E+00 4.846E+00


     ----------------------------------------------------------------

     Non-local correlation energy =              9.216043531144930

     ----------------------------------------------------------------


     total cpu time spent up to now is     4288.5 secs

     total energy              =  -11591.46002946 Ry
     estimated scf accuracy    <       0.07676545 Ry

     total magnetization       =     2.77 Bohr mag/cell
     absolute magnetization    =     2.97 Bohr mag/cell

     iteration # 21     ecut=    60.00 Ry     beta= 0.20
     CG style diagonalization

---- Real-time Memory Report at c_bands before calling an iterative solver
             0 MiB given to the printing process from OS
             0 MiB allocation reported by mallinfo(arena+hblkhd)
        170448 MiB available memory on the node where the printing process lives
------------------
     ethr =  8.64E-06,  avg # of iterations =  3.0

     negative rho (up, down):  4.867E+00 4.847E+00


     ----------------------------------------------------------------

     Non-local correlation energy =              9.216237636873334

     ----------------------------------------------------------------


     total cpu time spent up to now is     4464.0 secs

     total energy              =  -11591.45802025 Ry
     estimated scf accuracy    <       0.21468691 Ry

     total magnetization       =     2.74 Bohr mag/cell
     absolute magnetization    =     2.94 Bohr mag/cell

     iteration # 22     ecut=    60.00 Ry     beta= 0.20
     CG style diagonalization

---- Real-time Memory Report at c_bands before calling an iterative solver
             0 MiB given to the printing process from OS
             0 MiB allocation reported by mallinfo(arena+hblkhd)
        170458 MiB available memory on the node where the printing process lives
------------------
     ethr =  8.64E-06,  avg # of iterations =  3.0

     negative rho (up, down):  4.867E+00 4.847E+00


     ----------------------------------------------------------------

     Non-local correlation energy =              9.216181903761235

     ----------------------------------------------------------------


     total cpu time spent up to now is     4640.2 secs

     total energy              =  -11591.45964329 Ry
     estimated scf accuracy    <       0.12874802 Ry

     total magnetization       =     2.73 Bohr mag/cell
     absolute magnetization    =     2.92 Bohr mag/cell

     iteration # 23     ecut=    60.00 Ry     beta= 0.20
     CG style diagonalization

---- Real-time Memory Report at c_bands before calling an iterative solver
             0 MiB given to the printing process from OS
             0 MiB allocation reported by mallinfo(arena+hblkhd)
        170455 MiB available memory on the node where the printing process lives
------------------
     ethr =  8.64E-06,  avg # of iterations =  3.0

     negative rho (up, down):  4.866E+00 4.846E+00


     ----------------------------------------------------------------

     Non-local correlation energy =              9.216086794888049

     ----------------------------------------------------------------


     total cpu time spent up to now is     4815.7 secs

     total energy              =  -11591.46114222 Ry
     estimated scf accuracy    <       0.06475208 Ry

     total magnetization       =     2.74 Bohr mag/cell
     absolute magnetization    =     2.94 Bohr mag/cell

     iteration # 24     ecut=    60.00 Ry     beta= 0.20
     CG style diagonalization

---- Real-time Memory Report at c_bands before calling an iterative solver
             0 MiB given to the printing process from OS
             0 MiB allocation reported by mallinfo(arena+hblkhd)
        170449 MiB available memory on the node where the printing process lives
------------------
     ethr =  7.35E-06,  avg # of iterations =  3.0

     negative rho (up, down):  4.867E+00 4.847E+00


     ----------------------------------------------------------------

     Non-local correlation energy =              9.216172680259509

     ----------------------------------------------------------------


     total cpu time spent up to now is     4990.9 secs

     total energy              =  -11591.46195617 Ry
     estimated scf accuracy    <       0.02790800 Ry

     total magnetization       =     2.76 Bohr mag/cell
     absolute magnetization    =     2.95 Bohr mag/cell

     iteration # 25     ecut=    60.00 Ry     beta= 0.20
     CG style diagonalization

---- Real-time Memory Report at c_bands before calling an iterative solver
             0 MiB given to the printing process from OS
             0 MiB allocation reported by mallinfo(arena+hblkhd)
        170447 MiB available memory on the node where the printing process lives
------------------
     ethr =  3.17E-06,  avg # of iterations =  3.0

     negative rho (up, down):  4.868E+00 4.848E+00


     ----------------------------------------------------------------

     Non-local correlation energy =              9.216243241345889

     ----------------------------------------------------------------


     total cpu time spent up to now is     5166.9 secs

     total energy              =  -11591.46154217 Ry
     estimated scf accuracy    <       0.05052921 Ry

     total magnetization       =     2.75 Bohr mag/cell
     absolute magnetization    =     2.94 Bohr mag/cell

     iteration # 26     ecut=    60.00 Ry     beta= 0.20
     CG style diagonalization

---- Real-time Memory Report at c_bands before calling an iterative solver
             0 MiB given to the printing process from OS
             0 MiB allocation reported by mallinfo(arena+hblkhd)
        170453 MiB available memory on the node where the printing process lives
------------------
     ethr =  3.17E-06,  avg # of iterations =  3.0

     negative rho (up, down):  4.868E+00 4.848E+00


     ----------------------------------------------------------------

     Non-local correlation energy =              9.216249357793021

     ----------------------------------------------------------------


     total cpu time spent up to now is     5342.0 secs

     total energy              =  -11591.46165733 Ry
     estimated scf accuracy    <       0.02715653 Ry

     total magnetization       =     2.72 Bohr mag/cell
     absolute magnetization    =     2.92 Bohr mag/cell

     iteration # 27     ecut=    60.00 Ry     beta= 0.20
     CG style diagonalization

---- Real-time Memory Report at c_bands before calling an iterative solver
             0 MiB given to the printing process from OS
             0 MiB allocation reported by mallinfo(arena+hblkhd)
        170448 MiB available memory on the node where the printing process lives
------------------
     ethr =  3.08E-06,  avg # of iterations =  3.0

     negative rho (up, down):  4.868E+00 4.848E+00


     ----------------------------------------------------------------

     Non-local correlation energy =              9.216304936861066

     ----------------------------------------------------------------


     total cpu time spent up to now is     5517.2 secs

     total energy              =  -11591.46215130 Ry
     estimated scf accuracy    <       0.00543849 Ry

     total magnetization       =     2.73 Bohr mag/cell
     absolute magnetization    =     2.93 Bohr mag/cell

     iteration # 28     ecut=    60.00 Ry     beta= 0.20
     CG style diagonalization

---- Real-time Memory Report at c_bands before calling an iterative solver
             0 MiB given to the printing process from OS
             0 MiB allocation reported by mallinfo(arena+hblkhd)
        170453 MiB available memory on the node where the printing process lives
------------------
     ethr =  6.17E-07,  avg # of iterations =  3.0

     negative rho (up, down):  4.868E+00 4.849E+00


     ----------------------------------------------------------------

     Non-local correlation energy =              9.216331189959227

     ----------------------------------------------------------------


     total cpu time spent up to now is     5692.5 secs

     total energy              =  -11591.46193936 Ry
     estimated scf accuracy    <       0.00650454 Ry

     total magnetization       =     2.73 Bohr mag/cell
     absolute magnetization    =     2.92 Bohr mag/cell

     iteration # 29     ecut=    60.00 Ry     beta= 0.20
     CG style diagonalization

---- Real-time Memory Report at c_bands before calling an iterative solver
             0 MiB given to the printing process from OS
             0 MiB allocation reported by mallinfo(arena+hblkhd)
        170459 MiB available memory on the node where the printing process lives
------------------
     ethr =  6.17E-07,  avg # of iterations =  3.0

     negative rho (up, down):  4.869E+00 4.849E+00


     ----------------------------------------------------------------

     Non-local correlation energy =              9.216347821553899

     ----------------------------------------------------------------


     total cpu time spent up to now is     5867.7 secs

     total energy              =  -11591.46108988 Ry
     estimated scf accuracy    <       0.06943655 Ry

     total magnetization       =     2.72 Bohr mag/cell
     absolute magnetization    =     2.92 Bohr mag/cell

     iteration # 30     ecut=    60.00 Ry     beta= 0.20
     CG style diagonalization

---- Real-time Memory Report at c_bands before calling an iterative solver
             0 MiB given to the printing process from OS
             0 MiB allocation reported by mallinfo(arena+hblkhd)
        170448 MiB available memory on the node where the printing process lives
------------------
     ethr =  6.17E-07,  avg # of iterations =  3.0

     negative rho (up, down):  4.869E+00 4.849E+00


     ----------------------------------------------------------------

     Non-local correlation energy =              9.216374787939046

     ----------------------------------------------------------------


     total cpu time spent up to now is     6042.8 secs

     total energy              =  -11591.46181384 Ry
     estimated scf accuracy    <       0.00784378 Ry

     total magnetization       =     2.72 Bohr mag/cell
     absolute magnetization    =     2.91 Bohr mag/cell

     iteration # 31     ecut=    60.00 Ry     beta= 0.20
     CG style diagonalization

---- Real-time Memory Report at c_bands before calling an iterative solver
             0 MiB given to the printing process from OS
             0 MiB allocation reported by mallinfo(arena+hblkhd)
        170445 MiB available memory on the node where the printing process lives
------------------
     ethr =  6.17E-07,  avg # of iterations =  3.0

     negative rho (up, down):  4.869E+00 4.849E+00


     ----------------------------------------------------------------

     Non-local correlation energy =              9.216410230051084

     ----------------------------------------------------------------


     total cpu time spent up to now is     6217.9 secs

     total energy              =  -11591.46174516 Ry
     estimated scf accuracy    <       0.01380400 Ry

     total magnetization       =     2.72 Bohr mag/cell
     absolute magnetization    =     2.91 Bohr mag/cell

     iteration # 32     ecut=    60.00 Ry     beta= 0.20
     CG style diagonalization

---- Real-time Memory Report at c_bands before calling an iterative solver
             0 MiB given to the printing process from OS
             0 MiB allocation reported by mallinfo(arena+hblkhd)
        170437 MiB available memory on the node where the printing process lives
------------------
     ethr =  6.17E-07,  avg # of iterations =  3.0

     negative rho (up, down):  4.869E+00 4.849E+00


     ----------------------------------------------------------------

     Non-local correlation energy =              9.216417213064551

     ----------------------------------------------------------------


     total cpu time spent up to now is     6393.1 secs

     total energy              =  -11591.46181421 Ry
     estimated scf accuracy    <       0.00806035 Ry

     total magnetization       =     2.71 Bohr mag/cell
     absolute magnetization    =     2.90 Bohr mag/cell

     iteration # 33     ecut=    60.00 Ry     beta= 0.20
     CG style diagonalization

---- Real-time Memory Report at c_bands before calling an iterative solver
             0 MiB given to the printing process from OS
             0 MiB allocation reported by mallinfo(arena+hblkhd)
        170458 MiB available memory on the node where the printing process lives
------------------
     ethr =  6.17E-07,  avg # of iterations =  3.0

     negative rho (up, down):  4.869E+00 4.850E+00


     ----------------------------------------------------------------

     Non-local correlation energy =              9.216418010911957

     ----------------------------------------------------------------


     total cpu time spent up to now is     6568.6 secs

     total energy              =  -11591.46176872 Ry
     estimated scf accuracy    <       0.00725303 Ry

     total magnetization       =     2.71 Bohr mag/cell
     absolute magnetization    =     2.90 Bohr mag/cell

     iteration # 34     ecut=    60.00 Ry     beta= 0.20
     CG style diagonalization

---- Real-time Memory Report at c_bands before calling an iterative solver
             0 MiB given to the printing process from OS
             0 MiB allocation reported by mallinfo(arena+hblkhd)
        170436 MiB available memory on the node where the printing process lives
------------------
     ethr =  6.17E-07,  avg # of iterations =  3.0

     negative rho (up, down):  4.869E+00 4.850E+00


     ----------------------------------------------------------------

     Non-local correlation energy =              9.216425007994811

     ----------------------------------------------------------------


     total cpu time spent up to now is     6743.7 secs

     total energy              =  -11591.46174569 Ry
     estimated scf accuracy    <       0.00788142 Ry

     total magnetization       =     2.70 Bohr mag/cell
     absolute magnetization    =     2.89 Bohr mag/cell

     iteration # 35     ecut=    60.00 Ry     beta= 0.20
     CG style diagonalization

---- Real-time Memory Report at c_bands before calling an iterative solver
             0 MiB given to the printing process from OS
             0 MiB allocation reported by mallinfo(arena+hblkhd)
        170446 MiB available memory on the node where the printing process lives
------------------
     ethr =  6.17E-07,  avg # of iterations =  3.0

     negative rho (up, down):  4.870E+00 4.850E+00


     ----------------------------------------------------------------

     Non-local correlation energy =              9.216470831893062

     ----------------------------------------------------------------


     total cpu time spent up to now is     6918.7 secs

     total energy              =  -11591.46167883 Ry
     estimated scf accuracy    <       0.01855044 Ry

     total magnetization       =     2.70 Bohr mag/cell
     absolute magnetization    =     2.89 Bohr mag/cell

     iteration # 36     ecut=    60.00 Ry     beta= 0.20
     CG style diagonalization

---- Real-time Memory Report at c_bands before calling an iterative solver
             0 MiB given to the printing process from OS
             0 MiB allocation reported by mallinfo(arena+hblkhd)
        170440 MiB available memory on the node where the printing process lives
------------------
     ethr =  6.17E-07,  avg # of iterations =  3.0

     negative rho (up, down):  4.869E+00 4.850E+00


     ----------------------------------------------------------------

     Non-local correlation energy =              9.216449196347806

     ----------------------------------------------------------------


     total cpu time spent up to now is     7093.8 secs

     total energy              =  -11591.46185588 Ry
     estimated scf accuracy    <       0.00290624 Ry

     total magnetization       =     2.70 Bohr mag/cell
     absolute magnetization    =     2.89 Bohr mag/cell

     iteration # 37     ecut=    60.00 Ry     beta= 0.20
     CG style diagonalization

---- Real-time Memory Report at c_bands before calling an iterative solver
             0 MiB given to the printing process from OS
             0 MiB allocation reported by mallinfo(arena+hblkhd)
        170470 MiB available memory on the node where the printing process lives
------------------
     ethr =  3.30E-07,  avg # of iterations =  3.0

     negative rho (up, down):  4.870E+00 4.850E+00


     ----------------------------------------------------------------

     Non-local correlation energy =              9.216461523314635

     ----------------------------------------------------------------


     total cpu time spent up to now is     7268.8 secs

     total energy              =  -11591.46190956 Ry
     estimated scf accuracy    <       0.00178904 Ry

     total magnetization       =     2.70 Bohr mag/cell
     absolute magnetization    =     2.89 Bohr mag/cell

     iteration # 38     ecut=    60.00 Ry     beta= 0.20
     CG style diagonalization

---- Real-time Memory Report at c_bands before calling an iterative solver
             0 MiB given to the printing process from OS
             0 MiB allocation reported by mallinfo(arena+hblkhd)
        170446 MiB available memory on the node where the printing process lives
------------------
     ethr =  2.03E-07,  avg # of iterations =  3.0

     negative rho (up, down):  4.870E+00 4.850E+00


     ----------------------------------------------------------------

     Non-local correlation energy =              9.216480572425279

     ----------------------------------------------------------------


     total cpu time spent up to now is     7444.0 secs

     total energy              =  -11591.46191635 Ry
     estimated scf accuracy    <       0.00078883 Ry

     total magnetization       =     2.70 Bohr mag/cell
     absolute magnetization    =     2.89 Bohr mag/cell

     iteration # 39     ecut=    60.00 Ry     beta= 0.20
     CG style diagonalization

---- Real-time Memory Report at c_bands before calling an iterative solver
             0 MiB given to the printing process from OS
             0 MiB allocation reported by mallinfo(arena+hblkhd)
        170458 MiB available memory on the node where the printing process lives
------------------
     ethr =  8.95E-08,  avg # of iterations =  3.0

     negative rho (up, down):  4.870E+00 4.850E+00


     ----------------------------------------------------------------

     Non-local correlation energy =              9.216490322028179

     ----------------------------------------------------------------


     total cpu time spent up to now is     7619.1 secs

     total energy              =  -11591.46184654 Ry
     estimated scf accuracy    <       0.00536129 Ry

     total magnetization       =     2.69 Bohr mag/cell
     absolute magnetization    =     2.88 Bohr mag/cell

     iteration # 40     ecut=    60.00 Ry     beta= 0.20
     CG style diagonalization

---- Real-time Memory Report at c_bands before calling an iterative solver
             0 MiB given to the printing process from OS
             0 MiB allocation reported by mallinfo(arena+hblkhd)
        170459 MiB available memory on the node where the printing process lives
------------------
     ethr =  8.95E-08,  avg # of iterations =  3.0

     negative rho (up, down):  4.870E+00 4.850E+00


     ----------------------------------------------------------------

     Non-local correlation energy =              9.216491619541740

     ----------------------------------------------------------------


     total cpu time spent up to now is     7794.1 secs

     total energy              =  -11591.46189841 Ry
     estimated scf accuracy    <       0.00092500 Ry

     total magnetization       =     2.69 Bohr mag/cell
     absolute magnetization    =     2.88 Bohr mag/cell

     iteration # 41     ecut=    60.00 Ry     beta= 0.20
     CG style diagonalization

---- Real-time Memory Report at c_bands before calling an iterative solver
             0 MiB given to the printing process from OS
             0 MiB allocation reported by mallinfo(arena+hblkhd)
        170466 MiB available memory on the node where the printing process lives
------------------
     ethr =  8.95E-08,  avg # of iterations =  3.0

     negative rho (up, down):  4.870E+00 4.850E+00


     ----------------------------------------------------------------

     Non-local correlation energy =              9.216499221838244

     ----------------------------------------------------------------


     total cpu time spent up to now is     7968.9 secs

     total energy              =  -11591.46189659 Ry
     estimated scf accuracy    <       0.00130916 Ry

     total magnetization       =     2.69 Bohr mag/cell
     absolute magnetization    =     2.87 Bohr mag/cell

     iteration # 42     ecut=    60.00 Ry     beta= 0.20
     CG style diagonalization

---- Real-time Memory Report at c_bands before calling an iterative solver
             0 MiB given to the printing process from OS
             0 MiB allocation reported by mallinfo(arena+hblkhd)
        170462 MiB available memory on the node where the printing process lives
------------------
     ethr =  8.95E-08,  avg # of iterations =  3.0

     negative rho (up, down):  4.870E+00 4.851E+00


     ----------------------------------------------------------------

     Non-local correlation energy =              9.216507905310348

     ----------------------------------------------------------------


     total cpu time spent up to now is     8143.8 secs

     total energy              =  -11591.46189916 Ry
     estimated scf accuracy    <       0.00076212 Ry

     total magnetization       =     2.68 Bohr mag/cell
     absolute magnetization    =     2.87 Bohr mag/cell

     iteration # 43     ecut=    60.00 Ry     beta= 0.20
     CG style diagonalization

---- Real-time Memory Report at c_bands before calling an iterative solver
             0 MiB given to the printing process from OS
             0 MiB allocation reported by mallinfo(arena+hblkhd)
        170464 MiB available memory on the node where the printing process lives
------------------
     ethr =  8.65E-08,  avg # of iterations =  3.0

     negative rho (up, down):  4.870E+00 4.851E+00


     ----------------------------------------------------------------

     Non-local correlation energy =              9.216525266582908

     ----------------------------------------------------------------


     total cpu time spent up to now is     8319.2 secs

     total energy              =  -11591.46188032 Ry
     estimated scf accuracy    <       0.00081054 Ry

     total magnetization       =     2.68 Bohr mag/cell
     absolute magnetization    =     2.87 Bohr mag/cell

     iteration # 44     ecut=    60.00 Ry     beta= 0.20
     CG style diagonalization

---- Real-time Memory Report at c_bands before calling an iterative solver
             0 MiB given to the printing process from OS
             0 MiB allocation reported by mallinfo(arena+hblkhd)
        170462 MiB available memory on the node where the printing process lives
------------------
     ethr =  8.65E-08,  avg # of iterations =  3.0

     negative rho (up, down):  4.870E+00 4.851E+00


     ----------------------------------------------------------------

     Non-local correlation energy =              9.216522235119566

     ----------------------------------------------------------------


     total cpu time spent up to now is     8494.2 secs

     total energy              =  -11591.46187052 Ry
     estimated scf accuracy    <       0.00093550 Ry

     total magnetization       =     2.67 Bohr mag/cell
     absolute magnetization    =     2.86 Bohr mag/cell

     iteration # 45     ecut=    60.00 Ry     beta= 0.20
     CG style diagonalization

---- Real-time Memory Report at c_bands before calling an iterative solver
             0 MiB given to the printing process from OS
             0 MiB allocation reported by mallinfo(arena+hblkhd)
        170448 MiB available memory on the node where the printing process lives
------------------
     ethr =  8.65E-08,  avg # of iterations =  3.0

     negative rho (up, down):  4.870E+00 4.851E+00


     ----------------------------------------------------------------

     Non-local correlation energy =              9.216532273762041

     ----------------------------------------------------------------


     total cpu time spent up to now is     8669.1 secs

     total energy              =  -11591.46184843 Ry
     estimated scf accuracy    <       0.00378110 Ry

     total magnetization       =     2.67 Bohr mag/cell
     absolute magnetization    =     2.86 Bohr mag/cell

     iteration # 46     ecut=    60.00 Ry     beta= 0.20
     CG style diagonalization

---- Real-time Memory Report at c_bands before calling an iterative solver
             0 MiB given to the printing process from OS
             0 MiB allocation reported by mallinfo(arena+hblkhd)
        170454 MiB available memory on the node where the printing process lives
------------------
     ethr =  8.65E-08,  avg # of iterations =  3.0

     negative rho (up, down):  4.870E+00 4.851E+00


     ----------------------------------------------------------------

     Non-local correlation energy =              9.216531774124997

     ----------------------------------------------------------------


     total cpu time spent up to now is     8844.0 secs

     total energy              =  -11591.46188788 Ry
     estimated scf accuracy    <       0.00028219 Ry

     total magnetization       =     2.67 Bohr mag/cell
     absolute magnetization    =     2.85 Bohr mag/cell

     iteration # 47     ecut=    60.00 Ry     beta= 0.20
     CG style diagonalization

---- Real-time Memory Report at c_bands before calling an iterative solver
             0 MiB given to the printing process from OS
             0 MiB allocation reported by mallinfo(arena+hblkhd)
        170451 MiB available memory on the node where the printing process lives
------------------
     ethr =  3.20E-08,  avg # of iterations =  3.0

     negative rho (up, down):  4.870E+00 4.851E+00


     ----------------------------------------------------------------

     Non-local correlation energy =              9.216530084509746

     ----------------------------------------------------------------


     total cpu time spent up to now is     9018.8 secs

     total energy              =  -11591.46188233 Ry
     estimated scf accuracy    <       0.00065418 Ry

     total magnetization       =     2.67 Bohr mag/cell
     absolute magnetization    =     2.85 Bohr mag/cell

     iteration # 48     ecut=    60.00 Ry     beta= 0.20
     CG style diagonalization

---- Real-time Memory Report at c_bands before calling an iterative solver
             0 MiB given to the printing process from OS
             0 MiB allocation reported by mallinfo(arena+hblkhd)
        170446 MiB available memory on the node where the printing process lives
------------------
     ethr =  3.20E-08,  avg # of iterations =  3.0

     negative rho (up, down):  4.870E+00 4.851E+00


     ----------------------------------------------------------------

     Non-local correlation energy =              9.216541877267044

     ----------------------------------------------------------------


     total cpu time spent up to now is     9193.7 secs

     total energy              =  -11591.46188844 Ry
     estimated scf accuracy    <       0.00033273 Ry

     total magnetization       =     2.67 Bohr mag/cell
     absolute magnetization    =     2.85 Bohr mag/cell

     iteration # 49     ecut=    60.00 Ry     beta= 0.20
     CG style diagonalization

---- Real-time Memory Report at c_bands before calling an iterative solver
             0 MiB given to the printing process from OS
             0 MiB allocation reported by mallinfo(arena+hblkhd)
        170448 MiB available memory on the node where the printing process lives
------------------
     ethr =  3.20E-08,  avg # of iterations =  3.0

     negative rho (up, down):  4.870E+00 4.851E+00


     ----------------------------------------------------------------

     Non-local correlation energy =              9.216545695418784

     ----------------------------------------------------------------


     total cpu time spent up to now is     9368.5 secs

     total energy              =  -11591.46188173 Ry
     estimated scf accuracy    <       0.00091840 Ry

     total magnetization       =     2.66 Bohr mag/cell
     absolute magnetization    =     2.85 Bohr mag/cell

     iteration # 50     ecut=    60.00 Ry     beta= 0.20
     CG style diagonalization

---- Real-time Memory Report at c_bands before calling an iterative solver
             0 MiB given to the printing process from OS
             0 MiB allocation reported by mallinfo(arena+hblkhd)
        170432 MiB available memory on the node where the printing process lives
------------------
     ethr =  3.20E-08,  avg # of iterations =  3.0

     negative rho (up, down):  4.870E+00 4.851E+00


     ----------------------------------------------------------------

     Non-local correlation energy =              9.216543719973487

     ----------------------------------------------------------------


     total cpu time spent up to now is     9543.4 secs

     total energy              =  -11591.46189122 Ry
     estimated scf accuracy    <       0.00019823 Ry

     total magnetization       =     2.66 Bohr mag/cell
     absolute magnetization    =     2.84 Bohr mag/cell

     iteration # 51     ecut=    60.00 Ry     beta= 0.20
     CG style diagonalization

---- Real-time Memory Report at c_bands before calling an iterative solver
             0 MiB given to the printing process from OS
             0 MiB allocation reported by mallinfo(arena+hblkhd)
        170439 MiB available memory on the node where the printing process lives
------------------
     ethr =  2.25E-08,  avg # of iterations =  3.0

     negative rho (up, down):  4.870E+00 4.851E+00


     ----------------------------------------------------------------

     Non-local correlation energy =              9.216543570437167

     ----------------------------------------------------------------


     total cpu time spent up to now is     9718.2 secs

     total energy              =  -11591.46189094 Ry
     estimated scf accuracy    <       0.00032783 Ry

     total magnetization       =     2.66 Bohr mag/cell
     absolute magnetization    =     2.84 Bohr mag/cell

     iteration # 52     ecut=    60.00 Ry     beta= 0.20
     CG style diagonalization

---- Real-time Memory Report at c_bands before calling an iterative solver
             0 MiB given to the printing process from OS
             0 MiB allocation reported by mallinfo(arena+hblkhd)
        170455 MiB available memory on the node where the printing process lives
------------------
     ethr =  2.25E-08,  avg # of iterations =  3.0

     negative rho (up, down):  4.870E+00 4.851E+00


     ----------------------------------------------------------------

     Non-local correlation energy =              9.216547768076257

     ----------------------------------------------------------------


     total cpu time spent up to now is     9893.1 secs

     total energy              =  -11591.46189407 Ry
     estimated scf accuracy    <       0.00015080 Ry

     total magnetization       =     2.66 Bohr mag/cell
     absolute magnetization    =     2.84 Bohr mag/cell

     iteration # 53     ecut=    60.00 Ry     beta= 0.20
     CG style diagonalization

---- Real-time Memory Report at c_bands before calling an iterative solver
             0 MiB given to the printing process from OS
             0 MiB allocation reported by mallinfo(arena+hblkhd)
        170445 MiB available memory on the node where the printing process lives
------------------
     ethr =  1.71E-08,  avg # of iterations =  3.0

     negative rho (up, down):  4.870E+00 4.851E+00


     ----------------------------------------------------------------

     Non-local correlation energy =              9.216555118711275

     ----------------------------------------------------------------


     total cpu time spent up to now is    10068.2 secs

     total energy              =  -11591.46189364 Ry
     estimated scf accuracy    <       0.00006716 Ry

     total magnetization       =     2.65 Bohr mag/cell
     absolute magnetization    =     2.84 Bohr mag/cell

     iteration # 54     ecut=    60.00 Ry     beta= 0.20
     CG style diagonalization

---- Real-time Memory Report at c_bands before calling an iterative solver
             0 MiB given to the printing process from OS
             0 MiB allocation reported by mallinfo(arena+hblkhd)
        170449 MiB available memory on the node where the printing process lives
------------------
     ethr =  7.62E-09,  avg # of iterations =  3.0

     negative rho (up, down):  4.870E+00 4.851E+00


     ----------------------------------------------------------------

     Non-local correlation energy =              9.216555028530475

     ----------------------------------------------------------------


     total cpu time spent up to now is    10243.0 secs

     total energy              =  -11591.46189247 Ry
     estimated scf accuracy    <       0.00006679 Ry

     total magnetization       =     2.65 Bohr mag/cell
     absolute magnetization    =     2.83 Bohr mag/cell

     iteration # 55     ecut=    60.00 Ry     beta= 0.20
     CG style diagonalization

---- Real-time Memory Report at c_bands before calling an iterative solver
             0 MiB given to the printing process from OS
             0 MiB allocation reported by mallinfo(arena+hblkhd)
        170456 MiB available memory on the node where the printing process lives
------------------
     ethr =  7.58E-09,  avg # of iterations =  3.0

     negative rho (up, down):  4.870E+00 4.851E+00


     ----------------------------------------------------------------

     Non-local correlation energy =              9.216554752185367

     ----------------------------------------------------------------


     total cpu time spent up to now is    10417.8 secs

     total energy              =  -11591.46188895 Ry
     estimated scf accuracy    <       0.00040460 Ry

     total magnetization       =     2.64 Bohr mag/cell
     absolute magnetization    =     2.83 Bohr mag/cell

     iteration # 56     ecut=    60.00 Ry     beta= 0.20
     CG style diagonalization

---- Real-time Memory Report at c_bands before calling an iterative solver
             0 MiB given to the printing process from OS
             0 MiB allocation reported by mallinfo(arena+hblkhd)
        170464 MiB available memory on the node where the printing process lives
------------------
     ethr =  7.58E-09,  avg # of iterations =  3.0

     negative rho (up, down):  4.870E+00 4.851E+00


     ----------------------------------------------------------------

     Non-local correlation energy =              9.216559601144542

     ----------------------------------------------------------------


     total cpu time spent up to now is    10592.5 secs

     total energy              =  -11591.46189313 Ry
     estimated scf accuracy    <       0.00003594 Ry

     total magnetization       =     2.65 Bohr mag/cell
     absolute magnetization    =     2.83 Bohr mag/cell

     iteration # 57     ecut=    60.00 Ry     beta= 0.20
     CG style diagonalization

---- Real-time Memory Report at c_bands before calling an iterative solver
             0 MiB given to the printing process from OS
             0 MiB allocation reported by mallinfo(arena+hblkhd)
        170454 MiB available memory on the node where the printing process lives
------------------
     ethr =  4.08E-09,  avg # of iterations =  3.0

     negative rho (up, down):  4.870E+00 4.851E+00


     ----------------------------------------------------------------

     Non-local correlation energy =              9.216561458912405

     ----------------------------------------------------------------


     total cpu time spent up to now is    10767.4 secs

     total energy              =  -11591.46189112 Ry
     estimated scf accuracy    <       0.00009890 Ry

     total magnetization       =     2.64 Bohr mag/cell
     absolute magnetization    =     2.82 Bohr mag/cell

     iteration # 58     ecut=    60.00 Ry     beta= 0.20
     CG style diagonalization

---- Real-time Memory Report at c_bands before calling an iterative solver
             0 MiB given to the printing process from OS
             0 MiB allocation reported by mallinfo(arena+hblkhd)
        170468 MiB available memory on the node where the printing process lives
------------------
     ethr =  4.08E-09,  avg # of iterations =  3.0

     negative rho (up, down):  4.870E+00 4.851E+00


     ----------------------------------------------------------------

     Non-local correlation energy =              9.216563226864245

     ----------------------------------------------------------------


     total cpu time spent up to now is    10942.2 secs

     total energy              =  -11591.46189148 Ry
     estimated scf accuracy    <       0.00008103 Ry

     total magnetization       =     2.63 Bohr mag/cell
     absolute magnetization    =     2.82 Bohr mag/cell

     iteration # 59     ecut=    60.00 Ry     beta= 0.20
     CG style diagonalization

---- Real-time Memory Report at c_bands before calling an iterative solver
             0 MiB given to the printing process from OS
             0 MiB allocation reported by mallinfo(arena+hblkhd)
        170449 MiB available memory on the node where the printing process lives
------------------
     ethr =  4.08E-09,  avg # of iterations =  3.0

     negative rho (up, down):  4.870E+00 4.851E+00


     ----------------------------------------------------------------

     Non-local correlation energy =              9.216564362490242

     ----------------------------------------------------------------


     total cpu time spent up to now is    11117.0 secs

     total energy              =  -11591.46189173 Ry
     estimated scf accuracy    <       0.00013666 Ry

     total magnetization       =     2.63 Bohr mag/cell
     absolute magnetization    =     2.82 Bohr mag/cell

     iteration # 60     ecut=    60.00 Ry     beta= 0.20
     CG style diagonalization

---- Real-time Memory Report at c_bands before calling an iterative solver
             0 MiB given to the printing process from OS
             0 MiB allocation reported by mallinfo(arena+hblkhd)
        170447 MiB available memory on the node where the printing process lives
------------------
     ethr =  4.08E-09,  avg # of iterations =  3.0

     negative rho (up, down):  4.870E+00 4.852E+00


     ----------------------------------------------------------------

     Non-local correlation energy =              9.216576846252080

     ----------------------------------------------------------------

 
     Magnetic moment per site  (integrated on atomic sphere of radius R)
     atom   1 (R=0.046)  charge= 11.0371  magn=  0.0179
     atom   2 (R=0.046)  charge= 11.0368  magn=  0.0179
     atom   3 (R=0.046)  charge= 11.0372  magn=  0.0180
     atom   4 (R=0.046)  charge= 11.0501  magn=  0.0494
     atom   5 (R=0.046)  charge= 11.0373  magn=  0.0247
     atom   6 (R=0.046)  charge= 11.0373  magn=  0.0247
     atom   7 (R=0.046)  charge= 11.0145  magn=  0.0499
     atom   8 (R=0.046)  charge= 11.0377  magn=  0.0239
     atom   9 (R=0.046)  charge= 11.0512  magn=  0.0494
     atom  10 (R=0.046)  charge= 11.0387  magn=  0.0247
     atom  11 (R=0.046)  charge= 11.0153  magn=  0.0500
     atom  12 (R=0.046)  charge= 11.0381  magn=  0.0248
     atom  13 (R=0.046)  charge= 11.0228  magn=  0.0178
     atom  14 (R=0.046)  charge= 11.0394  magn=  0.0236
     atom  15 (R=0.046)  charge= 11.0159  magn=  0.0504
     atom  16 (R=0.046)  charge= 11.0170  magn=  0.0504
     atom  17 (R=0.046)  charge= 11.0483  magn=  0.0483
     atom  18 (R=0.046)  charge= 11.0382  magn=  0.0264
     atom  19 (R=0.046)  charge= 11.0386  magn=  0.0240
     atom  20 (R=0.046)  charge= 11.0497  magn=  0.0482
     atom  21 (R=0.046)  charge= 11.0388  magn=  0.0264
     atom  22 (R=0.046)  charge= 11.0504  magn=  0.0497
     atom  23 (R=0.046)  charge= 11.0147  magn=  0.0502
     atom  24 (R=0.046)  charge= 11.0377  magn=  0.0249
     atom  25 (R=0.046)  charge= 11.0376  magn=  0.0249
     atom  26 (R=0.046)  charge= 11.0224  magn=  0.0179
     atom  27 (R=0.046)  charge= 11.0157  magn=  0.0503
     atom  28 (R=0.046)  charge= 11.0389  magn=  0.0237
     atom  29 (R=0.046)  charge= 11.0159  magn=  0.0509
     atom  30 (R=0.046)  charge= 11.0483  magn=  0.0483
     atom  31 (R=0.046)  charge= 11.0378  magn=  0.0265
     atom  32 (R=0.046)  charge= 11.0225  magn=  0.0179
     atom  33 (R=0.046)  charge= 11.0159  magn=  0.0508
     atom  34 (R=0.046)  charge= 11.0156  magn=  0.0509
     atom  35 (R=0.046)  charge= 11.0384  magn=  0.0238
     atom  36 (R=0.046)  charge= 10.9756  magn=  0.0633
[...]
     atom   12 type  1   force =     0.00830848   -0.00896561    0.02540660
     atom   13 type  1   force =     0.03111138    0.00321758    0.00321751
     atom   14 type  1   force =     0.02461169   -0.00770507   -0.00770504
     atom   15 type  1   force =    -0.00460359   -0.00017919    0.00428176
     atom   16 type  1   force =    -0.00460361    0.00428179   -0.00017922
     atom   17 type  1   force =     0.01265263   -0.00024443   -0.01240820
     atom   18 type  1   force =     0.00862029   -0.00889420   -0.02583298
     atom   19 type  1   force =     0.00814383   -0.02568530    0.00814382
     atom   20 type  1   force =     0.01265217   -0.01240776   -0.00024440
     atom   21 type  1   force =     0.00862029   -0.02583289   -0.00889414
     atom   22 type  1   force =    -0.00106665    0.01293814    0.01293816
     atom   23 type  1   force =     0.00020420   -0.00432251   -0.00432249
     atom   24 type  1   force =    -0.00896568    0.02540671    0.00830853
     atom   25 type  1   force =    -0.00896569    0.00830850    0.02540680
     atom   26 type  1   force =     0.00321754    0.03111133    0.00321752
     atom   27 type  1   force =    -0.00017916   -0.00460363    0.00428179
     atom   28 type  1   force =    -0.00770509    0.02461175   -0.00770505
     atom   29 type  1   force =     0.00428181   -0.00460362   -0.00017918
     atom   30 type  1   force =    -0.00024439    0.01265266   -0.01240826
     atom   31 type  1   force =    -0.00889419    0.00862025   -0.02583294
     atom   32 type  1   force =     0.00321750    0.00321752    0.03111137
     atom   33 type  1   force =    -0.00017921    0.00428181   -0.00460363
     atom   34 type  1   force =     0.00428179   -0.00017920   -0.00460359
     atom   35 type  1   force =    -0.00770508   -0.00770507    0.02461173
     atom   36 type  1   force =     0.00049231    0.00049228    0.00049227
     atom   37 type  1   force =    -0.00007232    0.00486776    0.00486776
     atom   38 type  1   force =     0.00486781   -0.00007237    0.00486776
     atom   39 type  1   force =     0.00486777    0.00486776   -0.00007234
     atom   40 type  1   force =    -0.00019489   -0.00019493   -0.03057926
     atom   41 type  1   force =    -0.00855634   -0.00855636   -0.02531298
     atom   42 type  1   force =    -0.00024440   -0.01240792    0.01265229
     atom   43 type  1   force =    -0.00889415   -0.02583287    0.00862023
     atom   44 type  1   force =    -0.00019491   -0.03057930   -0.00019492
     atom   45 type  1   force =    -0.00855637   -0.02531300   -0.00855634
     atom   46 type  1   force =     0.00002350   -0.01246081   -0.01246075
     atom   47 type  1   force =    -0.02568537    0.00814385    0.00814388
     atom   48 type  1   force =    -0.01240805    0.01265236   -0.00024441
     atom   49 type  1   force =    -0.02583286    0.00862026   -0.00889414
     atom   50 type  1   force =    -0.01240814   -0.00024443    0.01265248
     atom   51 type  1   force =    -0.02583287   -0.00889417    0.00862024
     atom   52 type  1   force =    -0.03057929   -0.00019492   -0.00019489
     atom   53 type  1   force =    -0.02531289   -0.00855636   -0.00855632
     atom   54 type  1   force =    -0.01246063    0.00002345   -0.01246055
     atom   55 type  1   force =    -0.01246057   -0.01246054    0.00002350
     atom   56 type  2   force =     0.00000000    0.00000000    0.00000000
     The Hubbard contrib.    to forces
     atom    1 type  1   force =     0.00000000    0.00000000    0.00000000
     atom    2 type  1   force =     0.00000000    0.00000000    0.00000000
     atom    3 type  1   force =     0.00000000    0.00000000    0.00000000
     atom    4 type  1   force =     0.00000000    0.00000000    0.00000000
     atom    5 type  1   force =     0.00000000    0.00000000    0.00000000
     atom    6 type  1   force =     0.00000000    0.00000000    0.00000000
     atom    7 type  1   force =     0.00000000    0.00000000    0.00000000
     atom    8 type  1   force =     0.00000000    0.00000000    0.00000000
     atom    9 type  1   force =     0.00000000    0.00000000    0.00000000
     atom   10 type  1   force =     0.00000000    0.00000000    0.00000000
     atom   11 type  1   force =     0.00000000    0.00000000    0.00000000
     atom   12 type  1   force =     0.00000000    0.00000000    0.00000000
     atom   13 type  1   force =     0.00000000    0.00000000    0.00000000
     atom   14 type  1   force =     0.00000000    0.00000000    0.00000000
     atom   15 type  1   force =     0.00000000    0.00000000    0.00000000
     atom   16 type  1   force =     0.00000000    0.00000000    0.00000000
     atom   17 type  1   force =     0.00000000    0.00000000    0.00000000
     atom   18 type  1   force =     0.00000000    0.00000000    0.00000000
     atom   19 type  1   force =     0.00000000    0.00000000    0.00000000
     atom   20 type  1   force =     0.00000000    0.00000000    0.00000000
     atom   21 type  1   force =     0.00000000    0.00000000    0.00000000
     atom   22 type  1   force =     0.00000000    0.00000000    0.00000000
     atom   23 type  1   force =     0.00000000    0.00000000    0.00000000
     atom   24 type  1   force =     0.00000000    0.00000000    0.00000000
     atom   25 type  1   force =     0.00000000    0.00000000    0.00000000
     atom   26 type  1   force =     0.00000000    0.00000000    0.00000000
     atom   27 type  1   force =     0.00000000    0.00000000    0.00000000
     atom   28 type  1   force =     0.00000000    0.00000000    0.00000000
     atom   29 type  1   force =     0.00000000    0.00000000    0.00000000
     atom   30 type  1   force =     0.00000000    0.00000000    0.00000000
     atom   31 type  1   force =     0.00000000    0.00000000    0.00000000
     atom   32 type  1   force =     0.00000000    0.00000000    0.00000000
     atom   33 type  1   force =     0.00000000    0.00000000    0.00000000
     atom   34 type  1   force =     0.00000000    0.00000000    0.00000000
     atom   35 type  1   force =     0.00000000    0.00000000    0.00000000
     atom   36 type  1   force =     0.00000000    0.00000000    0.00000000
     atom   37 type  1   force =     0.00000000    0.00000000    0.00000000
     atom   38 type  1   force =     0.00000000    0.00000000    0.00000000
     atom   39 type  1   force =     0.00000000    0.00000000    0.00000000
     atom   40 type  1   force =     0.00000000    0.00000000    0.00000000
     atom   41 type  1   force =     0.00000000    0.00000000    0.00000000
     atom   42 type  1   force =     0.00000000    0.00000000    0.00000000
     atom   43 type  1   force =     0.00000000    0.00000000    0.00000000
     atom   44 type  1   force =     0.00000000    0.00000000    0.00000000
     atom   45 type  1   force =     0.00000000    0.00000000    0.00000000
     atom   46 type  1   force =     0.00000000    0.00000000    0.00000000
     atom   47 type  1   force =     0.00000000    0.00000000    0.00000000
     atom   48 type  1   force =     0.00000000    0.00000000    0.00000000
     atom   49 type  1   force =     0.00000000    0.00000000    0.00000000
     atom   50 type  1   force =     0.00000000    0.00000000    0.00000000
     atom   51 type  1   force =     0.00000000    0.00000000    0.00000000
     atom   52 type  1   force =     0.00000000    0.00000000    0.00000000
     atom   53 type  1   force =     0.00000000    0.00000000    0.00000000
     atom   54 type  1   force =     0.00000000    0.00000000    0.00000000
     atom   55 type  1   force =     0.00000000    0.00000000    0.00000000
     atom   56 type  2   force =     0.00000000    0.00000000    0.00000000
     The SCF correction term to forces
     atom    1 type  1   force =    -0.00000127    0.00002463   -0.00003688
     atom    2 type  1   force =    -0.00004163    0.00001850   -0.00003539
     atom    3 type  1   force =    -0.00005059    0.00001724    0.00001151
     atom    4 type  1   force =    -0.00002045    0.00001243   -0.00005203
     atom    5 type  1   force =    -0.00004049    0.00000314   -0.00006558
     atom    6 type  1   force =    -0.00003146   -0.00002467   -0.00004841
     atom    7 type  1   force =    -0.00003358    0.00003050   -0.00008530
     atom    8 type  1   force =    -0.00002352   -0.00000584    0.00000752
     atom    9 type  1   force =     0.00000368   -0.00000528    0.00002378
     atom   10 type  1   force =     0.00000407   -0.00003454   -0.00001605
     atom   11 type  1   force =    -0.00004255    0.00000094   -0.00002265
     atom   12 type  1   force =    -0.00003459   -0.00003046    0.00001871
     atom   13 type  1   force =    -0.00000895   -0.00000198   -0.00008359
     atom   14 type  1   force =    -0.00001872    0.00001852   -0.00005646
     atom   15 type  1   force =     0.00001157    0.00005560   -0.00007727
     atom   16 type  1   force =     0.00000637   -0.00000306   -0.00003070
     atom   17 type  1   force =    -0.00004366    0.00002740   -0.00000519
     atom   18 type  1   force =     0.00003842    0.00007897   -0.00000709
     atom   19 type  1   force =    -0.00001999   -0.00002513   -0.00000573
     atom   20 type  1   force =    -0.00000893   -0.00000963   -0.00001944
     atom   21 type  1   force =     0.00003531    0.00001192    0.00000719
     atom   22 type  1   force =    -0.00003973    0.00000483   -0.00000760
     atom   23 type  1   force =    -0.00006100    0.00002800   -0.00001581
     atom   24 type  1   force =    -0.00001602   -0.00001096   -0.00001374
     atom   25 type  1   force =    -0.00002972    0.00000146   -0.00001177
     atom   26 type  1   force =    -0.00003204   -0.00001139   -0.00005282
     atom   27 type  1   force =     0.00003691    0.00004950   -0.00005180
     atom   28 type  1   force =     0.00002955   -0.00001088   -0.00001361
     atom   29 type  1   force =     0.00000510    0.00005617    0.00001194
     atom   30 type  1   force =     0.00002257   -0.00003281    0.00001704
     atom   31 type  1   force =     0.00009110    0.00006053    0.00000569
     atom   32 type  1   force =    -0.00006853   -0.00000686    0.00000612
     atom   33 type  1   force =    -0.00001160   -0.00000533    0.00002929
     atom   34 type  1   force =    -0.00002354    0.00004971    0.00004204
     atom   35 type  1   force =    -0.00001932    0.00001407    0.00000687
     atom   36 type  1   force =     0.00002171    0.00007168   -0.00000653
     atom   37 type  1   force =     0.00010768    0.00007233    0.00000217
     atom   38 type  1   force =     0.00008564    0.00012644    0.00002150
     atom   39 type  1   force =     0.00005501    0.00006142    0.00008858
     atom   40 type  1   force =     0.00008652    0.00008659    0.00000363
     atom   41 type  1   force =     0.00007200    0.00005543   -0.00004270
     atom   42 type  1   force =    -0.00001077   -0.00000032    0.00000291
     atom   43 type  1   force =     0.00003834    0.00000061    0.00005517
     atom   44 type  1   force =     0.00005339   -0.00000801    0.00004084
     atom   45 type  1   force =     0.00005443   -0.00002958    0.00001775
     atom   46 type  1   force =     0.00007430    0.00001710   -0.00001435
     atom   47 type  1   force =     0.00001586    0.00000859    0.00000676
     atom   48 type  1   force =     0.00002772   -0.00000484    0.00000991
     atom   49 type  1   force =     0.00002915    0.00006966    0.00003873
     atom   50 type  1   force =     0.00001464    0.00002338   -0.00000372
     atom   51 type  1   force =     0.00000466    0.00005863    0.00006805
     atom   52 type  1   force =     0.00000881    0.00008246    0.00007072
     atom   53 type  1   force =    -0.00001992    0.00004375    0.00002372
     atom   54 type  1   force =     0.00002249    0.00007939   -0.00001667
     atom   55 type  1   force =    -0.00000218   -0.00000952    0.00006564
     atom   56 type  2   force =     0.00000089    0.00000454    0.00000194

     Total force =     0.004120     Total SCF correction =     0.000520
     SCF correction compared to forces is large: reduce conv_thr to get better values
     Energy error            =      2.8E-05 Ry
     Gradient error          =      8.3E-04 Ry/Bohr

     bfgs converged in  17 scf cycles and  16 bfgs steps
     (criteria: energy <  1.0E-04 Ry, force <  1.0E-03 Ry/Bohr)

     End of BFGS Geometry Optimization

     Final energy             =  -11591.5086535858 Ry

     File ./out/calc.bfgs deleted, as requested
Begin final coordinates

ATOMIC_POSITIONS (angstrom)
Pt              -3.9822120470       -1.9289370829       -1.9289370829
Pt              -1.9289370829       -3.9822120470       -1.9289370829
Pt              -1.9289370829       -1.9289370829       -3.9822120470
Pt              -3.8180214852       -3.8180214852        0.0370822884
Pt              -3.9388692294       -1.9088161201        1.9211857080
Pt              -1.9088161201       -3.9388692294        1.9211857080
Pt              -1.9473861882       -1.9473861882       -0.0165359937
Pt              -1.9067760983       -1.9067760983        3.9456528776
Pt              -3.8180214852        0.0370822884       -3.8180214852
Pt              -3.9388692294        1.9211857080       -1.9088161201
Pt              -1.9473861882       -0.0165359937       -1.9473861882
Pt              -1.9088161201        1.9211857080       -3.9388692294
Pt              -4.1130724157       -0.0208699462       -0.0208699462
Pt              -3.9410998744        1.9040608132        1.9040608132
Pt              -1.9311918433       -0.0089318954        1.9209056681
Pt              -1.9311918433        1.9209056681       -0.0089318954
Pt              -3.8048835377       -0.0014190339        3.8145446248
Pt              -1.9119001950        1.9063515993        3.9310324922
Pt              -1.9067760983        3.9456528776       -1.9067760983
Pt              -3.8048835377        3.8145446248       -0.0014190339
Pt              -1.9119001950        3.9310324922        1.9063515993
Pt               0.0370822884       -3.8180214852       -3.8180214852
Pt              -0.0165359937       -1.9473861882       -1.9473861882
Pt               1.9211857080       -3.9388692294       -1.9088161201
Pt               1.9211857080       -1.9088161201       -3.9388692294
Pt              -0.0208699462       -4.1130724157       -0.0208699462
Pt              -0.0089318954       -1.9311918433        1.9209056681
Pt               1.9040608132       -3.9410998744        1.9040608132
Pt               1.9209056681       -1.9311918433       -0.0089318954
Pt              -0.0014190339       -3.8048835377        3.8145446248
Pt               1.9063515993       -1.9119001950        3.9310324922
Pt              -0.0208699462       -0.0208699462       -4.1130724157
Pt              -0.0089318954        1.9209056681       -1.9311918433
Pt               1.9209056681       -0.0089318954       -1.9311918433
Pt               1.9040608132        1.9040608132       -3.9410998744
Pt              -0.0164120855       -0.0164120855       -0.0164120855
Pt              -0.0069293829        1.9180983966        1.9180983966
Pt               1.9180983966       -0.0069293829        1.9180983966
Pt               1.9180983966        1.9180983966       -0.0069293829
Pt               0.0026688402        0.0026688402        4.1342919354
Pt               1.9086654511        1.9086654511        3.9303196735
Pt              -0.0014190339        3.8145446248       -3.8048835377
Pt               1.9063515993        3.9310324922       -1.9119001950
Pt               0.0026688402        4.1342919354        0.0026688402
Pt               1.9086654511        3.9303196735        1.9086654511
Pt              -0.0032208398        3.8042841862        3.8042841862
Pt               3.9456528776       -1.9067760983       -1.9067760983
Pt               3.8145446248       -3.8048835377       -0.0014190339
Pt               3.9310324922       -1.9119001950        1.9063515993
Pt               3.8145446248       -0.0014190339       -3.8048835377
Pt               3.9310324922        1.9063515993       -1.9119001950
Pt               4.1342919354        0.0026688402        0.0026688402
Pt               3.9303196735        1.9086654511        1.9086654511
Pt               3.8042841862       -0.0032208398        3.8042841862
Pt               3.8042841862        3.8042841862       -0.0032208398
H               -3.1393430641       -3.1393430641       -3.1393430641
End final coordinates



     Writing all to output data dir ./out/calc.save/ :
     XML data file, charge density, pseudopotentials, collected wavefunctions
 
     init_run     :     15.54s CPU     17.69s WALL (       1 calls)
     electrons    : 104155.01s CPU 106447.30s WALL (      14 calls)
     update_pot   :     30.19s CPU     33.76s WALL (      13 calls)
     forces       :     96.85s CPU    103.89s WALL (      14 calls)

     Called by init_run:
     wfcinit      :      8.69s CPU      9.33s WALL (       1 calls)
     wfcinit:atom :      0.03s CPU      0.08s WALL (       2 calls)
     wfcinit:wfcr :      8.29s CPU      8.84s WALL (       2 calls)
     potinit      :      3.61s CPU      4.90s WALL (       1 calls)
     hinit0       :      0.90s CPU      0.99s WALL (       1 calls)

     Called by electrons:
     c_bands      :  99996.63s CPU 101890.71s WALL (     530 calls)
     sum_band     :   2507.85s CPU   2686.51s WALL (     530 calls)
     v_of_rho     :   1184.34s CPU   1323.79s WALL (     539 calls)
     v_h          :     17.33s CPU     18.86s WALL (     539 calls)
     v_xc         :   1197.23s CPU   1338.91s WALL (     553 calls)
     newd         :    421.72s CPU    478.13s WALL (     539 calls)
     mix_rho      :     48.21s CPU     52.22s WALL (     530 calls)

     Called by c_bands:
     init_us_2    :    110.60s CPU    111.97s WALL (    2150 calls)
     rcgdiagg     :  96450.44s CPU  98109.02s WALL (    1086 calls)
     wfcrot       :   3457.27s CPU   3680.25s WALL (    1050 calls)

     Called by sum_band:
     sum_band:wei :      0.89s CPU      0.90s WALL (     530 calls)
     sum_band:loo :   1881.08s CPU   1999.47s WALL (     530 calls)
     sum_band:buf :     20.67s CPU     20.98s WALL (    1060 calls)
     sum_band:ini :     55.20s CPU     55.81s WALL (    1060 calls)
     sum_band:cal :    310.39s CPU    312.32s WALL (    1060 calls)
     sum_band:bec :      2.32s CPU      2.34s WALL (    1060 calls)
     addusdens    :    585.81s CPU    643.48s WALL (     530 calls)
                                        0.00s GPU  (     530 calls)
     addusd:skk   :     16.10s CPU     28.06s WALL (    1060 calls)
                                        0.00s GPU  (    1060 calls)

     Called by *cgdiagg:
     h_psi        :  44208.64s CPU  45608.25s WALL ( 1300703 calls)
     s_psi        :  30479.63s CPU  30741.65s WALL ( 2600356 calls)

     Called by h_psi:
     h_psi:calbec :  16637.10s CPU  16771.51s WALL ( 1300703 calls)
     vloc_psi     :  11983.65s CPU  13117.78s WALL ( 1300703 calls)
     add_vuspsi   :  15530.92s CPU  15664.94s WALL ( 1300703 calls)
     hs_1psi      :  56599.85s CPU  57922.83s WALL ( 1299653 calls)
     s_1psi       :  31083.02s CPU  31342.68s WALL ( 1299653 calls)

     General routines
     calbec       :  32829.58s CPU  33100.28s WALL ( 2601528 calls)
     fft          :    644.09s CPU    744.90s WALL (   37556 calls)
     ffts         :      7.70s CPU      9.00s WALL (    1608 calls)
     fftw         :   7448.16s CPU   8614.89s WALL ( 3436970 calls)
     interpolate  :     27.58s CPU     31.25s WALL (    1078 calls)
 
     Parallel routines
 
     PWSCF        :   1d 4h58m CPU   1d 5h37m WALL

 
   This run was terminated on:   9:17:25  19Jan2025            

=------------------------------------------------------------------------------=
   JOB DONE.
=------------------------------------------------------------------------------=
