
     Program PWSCF v.7.3.1 starts on 24Jul2025 at 20:20:31 

     This program is part of the open-source Quantum ESPRESSO suite
     for quantum simulation of materials; please cite
         "P. Giannozzi et al., J. Phys.:Condens. Matter 21 395502 (2009);
         "P. Giannozzi et al., J. Phys.:Condens. Matter 29 465901 (2017);
         "P. Giannozzi et al., J. Chem. Phys. 152 154105 (2020);
          URL http://www.quantum-espresso.org", 
     in publications or presentations arising from this work. More details at
     http://www.quantum-espresso.org/quote

     Parallel version (MPI), running on    36 processors

     MPI processes distributed on     1 nodes
     87281 MiB available memory on the printing compute node when the environment starts
 
     Reading input from espresso.pwi
Warning: card &CELL ignored
Warning: card  CELL_DOFREE = 'IBRAV', ignored
Warning: card / ignored

     Current dimensions of program PWSCF are:
     Max number of different atomic species (ntypx) = 10
     Max number of k-points (npk) =  40000
     Max angular momentum in pseudopotentials (lmaxx) =  4
     Message from routine iosys:
     restart disabled: needed files not found

     IMPORTANT: XC functional enforced from input :
     Exchange-correlation= RVV10
                           (   1   4  13   4  26   0   0)
     Any further DFT definition will be discarded
     Please, verify this is what you really want


     Atomic positions and unit cell read from directory:
     ./out/calc.save/
     Message from routine qexsd_readschema :
     xml data file ./out/calc.save/data-file-schema.xml not found
     Nothing found: using input atomic positions and unit cell


     gamma-point specific algorithms are used
 
     R & G space division:  proc/nbgrp/npool/nimage =      36
     Subspace diagonalization in iterative solution of the eigenvalue problem:
     one sub-group per band group will be used
     scalapack distributed-memory algorithm (size of sub-group:  5*  5 procs)

 
     Parallelization info
     --------------------
     sticks:   dense  smooth     PW     G-vecs:    dense   smooth      PW
     Min        1514     756    187               266321    94136   11763
     Max        1516     758    190               266336    94150   11778
     Sum       54553   27281   6817              9587919  3389267  423701
 
     Using Slab Decomposition
 

     Title: 
     Pt55 DRC DFT-PBE                                                           


     bravais-lattice index     =            0
     lattice parameter (alat)  =      37.7945  a.u.
     unit-cell volume          =   53986.6760 (a.u.)^3
     number of atoms/cell      =           56
     number of atomic types    =            2
     number of electrons       =       881.00
     number of Kohn-Sham states=          529
     kinetic-energy cutoff     =      60.0000  Ry
     charge density cutoff     =     480.0000  Ry
     scf convergence threshold =      1.0E-06
     mixing beta               =       0.2000
     number of iterations used =            8  plain     mixing
     energy convergence thresh.=      1.0E-04
     force convergence thresh. =      1.0E-03
     Exchange-correlation= RVV10
                           (   1   4  13   4  26   0   0)
     nstep                     =        10000


     celldm(1)=  37.794522  celldm(2)=   0.000000  celldm(3)=   0.000000
     celldm(4)=   0.000000  celldm(5)=   0.000000  celldm(6)=   0.000000

     crystal axes: (cart. coord. in units of alat)
               a(1) = (   1.000000   0.000000   0.000000 )  
               a(2) = (   0.000000   1.000000   0.000000 )  
               a(3) = (   0.000000   0.000000   1.000000 )  

     reciprocal axes: (cart. coord. in units 2 pi/alat)
               b(1) = (  1.000000  0.000000  0.000000 )  
               b(2) = (  0.000000  1.000000  0.000000 )  
               b(3) = (  0.000000  0.000000  1.000000 )  


     PseudoPot. # 1 for Pt read from file:
     /home/james/work/espresso/SSSP_1.3.0_PBE_efficiency/pt_pbe_v1.4.uspp.F.UPF
     MD5 check sum: f09d6de1a584b5a045c4fc126da2d0c4
     Pseudo is Ultrasoft + core correction, Zval = 16.0
     Generated by new atomic code, or converted to UPF format
     Using radial grid of  985 points,  6 beta functions with: 
                l(1) =   0
                l(2) =   0
                l(3) =   1
                l(4) =   1
                l(5) =   2
                l(6) =   2
     Q(r) pseudized with  8 coefficients,  rinner =    1.300   1.300   1.300
                                                       1.300   1.300

     PseudoPot. # 2 for H  read from file:
     /home/james/work/espresso/SSSP_1.3.0_PBE_efficiency/H.pbe-rrkjus_psl.1.0.0.UPF
     MD5 check sum: f52b6d4d1c606e5624b1dc7b2218f220
     Pseudo is Ultrasoft, Zval =  1.0
     Generated using "atomic" code by A. Dal Corso  v.5.1
     Using radial grid of  929 points,  2 beta functions with: 
                l(1) =   0
                l(2) =   0
     Q(r) pseudized with 0 coefficients 


     atomic species   valence    mass     pseudopotential
     Pt               16.00   195.08400     Pt( 1.00)
     H                 1.00     1.00800     H ( 1.00)

     Starting magnetic structure 
     atomic species   magnetization
     Pt              0.010
     H               0.000

     No symmetry found


                                    s                        frac. trans.

      isym =  1     identity                                     

 cryst.   s( 1) = (     1          0          0      )
                  (     0          1          0      )
                  (     0          0          1      )

 cart.    s( 1) = (  1.0000000  0.0000000  0.0000000 )
                  (  0.0000000  1.0000000  0.0000000 )
                  (  0.0000000  0.0000000  1.0000000 )


   Cartesian axes

     site n.     atom                  positions (alat units)
         1        Pt     tau(   1) = (  -0.1184692  -0.1289811  -0.2146595  )
         2        Pt     tau(   2) = (   0.0879732  -0.1905563  -0.0473935  )
         3        Pt     tau(   3) = (  -0.0407954  -0.2088642  -0.0136076  )
         4        Pt     tau(   4) = (  -0.0534911  -0.0140564  -0.1170277  )
         5        Pt     tau(   5) = (  -0.1338863   0.0930485  -0.1450428  )
         6        Pt     tau(   6) = (  -0.0216487   0.0742489  -0.2224670  )
         7        Pt     tau(   7) = (  -0.1228422  -0.0003186  -0.2473079  )
         8        Pt     tau(   8) = (  -0.2193709   0.0091502   0.0852671  )
         9        Pt     tau(   9) = (   0.0332487  -0.0443171   0.0797488  )
        10        Pt     tau(  10) = (   0.0490643   0.0649223  -0.0801249  )
        11        Pt     tau(  11) = (   0.1286964   0.0142868   0.0087880  )
        12        Pt     tau(  12) = (   0.0516947  -0.1831859   0.0823583  )
        13        Pt     tau(  13) = (  -0.1824139  -0.0401985  -0.1364734  )
        14        Pt     tau(  14) = (  -0.1203394  -0.1322049   0.2271575  )
        15        Pt     tau(  15) = (  -0.1987900  -0.1171753   0.1194564  )
        16        Pt     tau(  16) = (   0.2439832   0.0269829  -0.0478417  )
        17        Pt     tau(  17) = (   0.1291423   0.1929666   0.0441357  )
        18        Pt     tau(  18) = (   0.2135598  -0.0299727  -0.1637702  )
        19        Pt     tau(  19) = (  -0.0893648   0.0523185  -0.0126911  )
        20        Pt     tau(  20) = (  -0.2080250   0.1375869   0.0577217  )
        21        Pt     tau(  21) = (  -0.1409462  -0.1648513  -0.0948211  )
        22        Pt     tau(  22) = (   0.0306188   0.2158309   0.1283915  )
        23        Pt     tau(  23) = (  -0.0038981  -0.0644102  -0.2279053  )
        24        Pt     tau(  24) = (   0.2243978  -0.0502054   0.0665406  )
        25        Pt     tau(  25) = (   0.1820945   0.0964271  -0.1408716  )
        26        Pt     tau(  26) = (   0.2264479   0.1612750  -0.0350756  )
        27        Pt     tau(  27) = (  -0.0229513   0.1709344  -0.1259021  )
        28        Pt     tau(  28) = (   0.0207124   0.0847292   0.0494645  )
        29        Pt     tau(  29) = (  -0.0882590  -0.0022267   0.1018400  )
        30        Pt     tau(  30) = (   0.1907775   0.0152478   0.1772775  )
        31        Pt     tau(  31) = (   0.1789948  -0.1737259   0.0478570  )
        32        Pt     tau(  32) = (  -0.2068087  -0.0814042  -0.0116031  )
        33        Pt     tau(  33) = (  -0.0671348  -0.0085571   0.2287301  )
        34        Pt     tau(  34) = (  -0.1498055   0.0904163   0.1729490  )
        35        Pt     tau(  35) = (  -0.0719561  -0.0785236  -0.0018603  )
        36        Pt     tau(  36) = (   0.1074455  -0.1080978  -0.1653069  )
        37        Pt     tau(  37) = (  -0.2143159   0.0476112  -0.0425252  )
        38        Pt     tau(  38) = (   0.0970606   0.0186090  -0.2042751  )
        39        Pt     tau(  39) = (   0.2152744   0.0880652   0.0720890  )
        40        Pt     tau(  40) = (  -0.1702640  -0.2033339   0.0251930  )
        41        Pt     tau(  41) = (   0.1333264  -0.1021657   0.1506856  )
        42        Pt     tau(  42) = (  -0.0758684  -0.1667120   0.1080652  )
        43        Pt     tau(  43) = (   0.0079707  -0.1220948   0.1959394  )
        44        Pt     tau(  44) = (   0.1035756   0.1872857  -0.0840180  )
        45        Pt     tau(  45) = (   0.0017203   0.2074397  -0.0000028  )
        46        Pt     tau(  46) = (  -0.1214752   0.1735622  -0.0383396  )
        47        Pt     tau(  47) = (   0.0626453  -0.0003444   0.2036670  )
        48        Pt     tau(  48) = (  -0.0911473   0.1789724   0.0937393  )
        49        Pt     tau(  49) = (   0.0820102   0.1511787  -0.2092932  )
        50        Pt     tau(  50) = (  -0.0177604   0.1051450   0.1826634  )
        51        Pt     tau(  51) = (  -0.0105208  -0.1612931  -0.1336594  )
        52        Pt     tau(  52) = (   0.1953231  -0.1018990  -0.0580435  )
        53        Pt     tau(  53) = (   0.0533890  -0.0672335  -0.0550032  )
        54        Pt     tau(  54) = (   0.1107939   0.1151121   0.1533706  )
        55        Pt     tau(  55) = (  -0.1993928  -0.0264440   0.2138168  )
        56        H      tau(  56) = (  -0.1518670  -0.1843835  -0.2772308  )

   Crystallographic axes

     site n.     atom                  positions (cryst. coord.)
         1        Pt     tau(   1) = ( -0.1184692 -0.1289811 -0.2146595  )
         2        Pt     tau(   2) = (  0.0879732 -0.1905563 -0.0473935  )
         3        Pt     tau(   3) = ( -0.0407954 -0.2088642 -0.0136076  )
         4        Pt     tau(   4) = ( -0.0534911 -0.0140564 -0.1170277  )
         5        Pt     tau(   5) = ( -0.1338863  0.0930485 -0.1450428  )
         6        Pt     tau(   6) = ( -0.0216487  0.0742489 -0.2224670  )
         7        Pt     tau(   7) = ( -0.1228422 -0.0003186 -0.2473079  )
         8        Pt     tau(   8) = ( -0.2193709  0.0091502  0.0852671  )
         9        Pt     tau(   9) = (  0.0332487 -0.0443171  0.0797488  )
        10        Pt     tau(  10) = (  0.0490643  0.0649223 -0.0801249  )
        11        Pt     tau(  11) = (  0.1286964  0.0142868  0.0087880  )
        12        Pt     tau(  12) = (  0.0516947 -0.1831859  0.0823583  )
        13        Pt     tau(  13) = ( -0.1824139 -0.0401985 -0.1364734  )
        14        Pt     tau(  14) = ( -0.1203394 -0.1322049  0.2271575  )
        15        Pt     tau(  15) = ( -0.1987900 -0.1171753  0.1194564  )
        16        Pt     tau(  16) = (  0.2439832  0.0269829 -0.0478417  )
        17        Pt     tau(  17) = (  0.1291423  0.1929666  0.0441357  )
        18        Pt     tau(  18) = (  0.2135598 -0.0299727 -0.1637702  )
        19        Pt     tau(  19) = ( -0.0893648  0.0523185 -0.0126911  )
        20        Pt     tau(  20) = ( -0.2080250  0.1375869  0.0577217  )
        21        Pt     tau(  21) = ( -0.1409462 -0.1648513 -0.0948211  )
        22        Pt     tau(  22) = (  0.0306188  0.2158309  0.1283915  )
        23        Pt     tau(  23) = ( -0.0038981 -0.0644102 -0.2279053  )
        24        Pt     tau(  24) = (  0.2243978 -0.0502054  0.0665406  )
        25        Pt     tau(  25) = (  0.1820945  0.0964271 -0.1408716  )
        26        Pt     tau(  26) = (  0.2264479  0.1612750 -0.0350756  )
        27        Pt     tau(  27) = ( -0.0229513  0.1709344 -0.1259021  )
        28        Pt     tau(  28) = (  0.0207124  0.0847292  0.0494645  )
        29        Pt     tau(  29) = ( -0.0882590 -0.0022267  0.1018400  )
        30        Pt     tau(  30) = (  0.1907775  0.0152478  0.1772775  )
        31        Pt     tau(  31) = (  0.1789948 -0.1737259  0.0478570  )
        32        Pt     tau(  32) = ( -0.2068087 -0.0814042 -0.0116031  )
        33        Pt     tau(  33) = ( -0.0671348 -0.0085571  0.2287301  )
        34        Pt     tau(  34) = ( -0.1498055  0.0904163  0.1729490  )
        35        Pt     tau(  35) = ( -0.0719561 -0.0785236 -0.0018603  )
        36        Pt     tau(  36) = (  0.1074455 -0.1080978 -0.1653069  )
        37        Pt     tau(  37) = ( -0.2143159  0.0476112 -0.0425252  )
        38        Pt     tau(  38) = (  0.0970606  0.0186090 -0.2042751  )
        39        Pt     tau(  39) = (  0.2152744  0.0880652  0.0720890  )
        40        Pt     tau(  40) = ( -0.1702640 -0.2033339  0.0251930  )
        41        Pt     tau(  41) = (  0.1333264 -0.1021657  0.1506856  )
        42        Pt     tau(  42) = ( -0.0758684 -0.1667120  0.1080652  )
        43        Pt     tau(  43) = (  0.0079707 -0.1220948  0.1959394  )
        44        Pt     tau(  44) = (  0.1035756  0.1872857 -0.0840180  )
        45        Pt     tau(  45) = (  0.0017203  0.2074397 -0.0000028  )
        46        Pt     tau(  46) = ( -0.1214752  0.1735622 -0.0383396  )
        47        Pt     tau(  47) = (  0.0626453 -0.0003444  0.2036670  )
        48        Pt     tau(  48) = ( -0.0911473  0.1789724  0.0937393  )
        49        Pt     tau(  49) = (  0.0820102  0.1511787 -0.2092932  )
        50        Pt     tau(  50) = ( -0.0177604  0.1051450  0.1826634  )
        51        Pt     tau(  51) = ( -0.0105208 -0.1612931 -0.1336594  )
        52        Pt     tau(  52) = (  0.1953231 -0.1018990 -0.0580435  )
        53        Pt     tau(  53) = (  0.0533890 -0.0672335 -0.0550032  )
        54        Pt     tau(  54) = (  0.1107939  0.1151121  0.1533706  )
        55        Pt     tau(  55) = ( -0.1993928 -0.0264440  0.2138168  )
        56        H      tau(  56) = ( -0.1518670 -0.1843835 -0.2772308  )

     number of k points=     1  Gaussian smearing, width (Ry)=  0.0100
                       cart. coord. in units 2pi/alat
        k(    1) = (   0.0000000   0.0000000   0.0000000), wk =   1.0000000

                       cryst. coord.
        k(    1) = (   0.0000000   0.0000000   0.0000000), wk =   1.0000000

     Dense  grid:  4793960 G-vectors     FFT dimensions: ( 270, 270, 270)

     Smooth grid:  1694634 G-vectors     FFT dimensions: ( 192, 192, 192)

     Dynamical RAM for                 wfc:      47.50 MB

     Dynamical RAM for     wfc (w. buffer):     142.49 MB

     Dynamical RAM for           str. fact:       4.06 MB

     Dynamical RAM for           local pot:       0.00 MB

     Dynamical RAM for          nlocal pot:      89.06 MB

     Dynamical RAM for                qrad:       3.52 MB

     Dynamical RAM for          rho,v,vnew:      38.89 MB

     Dynamical RAM for               rhoin:      12.96 MB

     Dynamical RAM for            rho*nmix:      65.02 MB

     Dynamical RAM for           G-vectors:       7.98 MB

     Dynamical RAM for          h,s,v(r/c):       0.25 MB

     Dynamical RAM for          <psi|beta>:       4.00 MB

     Dynamical RAM for      wfcinit/wfcrot:     101.40 MB

     Dynamical RAM for           addusdens:     491.72 MB

     Dynamical RAM for          addusforce:     711.60 MB

     Estimated static dynamical RAM per process >     331.75 MB

     Estimated max dynamical RAM per process >       1.08 GB

     Estimated total dynamical RAM >      38.97 GB
     Generating pointlists ...
     new r_m :   0.0371 (alat units)  1.4031 (a.u.) for type    1
     new r_m :   0.0371 (alat units)  1.4031 (a.u.) for type    2
     Cannot read rho : file not found

     Initial potential from superposition of free atoms

     starting charge     853.4994, renormalised to     881.0000

     negative rho (up, down):  5.280E+00 5.175E+00


---------------------------------------------------------------------------------
Carrying out rVV10 run using the following parameters:
Nqs =      20    Nr_points =    1024   r_max =   100.000
b_value =  6.30000    beta =  0.00901
     q_mesh =  0.00010000  0.00030000  0.00058939  0.00100810
               0.00161396  0.00249058  0.00375900  0.00559430
               0.00824984  0.01209221  0.01765183  0.02569619
               0.03733578  0.05417739  0.07854596  0.11380545
               0.16482331  0.23864234  0.34545298  0.50000000

Gradients computed in Reciprocal space

---------------------------------------------------------------------------------




     ----------------------------------------------------------------

     Non-local correlation energy =              9.714574226141686

     ----------------------------------------------------------------

     Message from routine qexsd_readschema :
     xml data file ./out/calc.save/data-file-schema.xml not found
     Cannot read wfcs: file not found
     Starting wfcs are  661 randomized atomic wfcs

     total cpu time spent up to now is       23.5 secs

     Self-consistent Calculation

     iteration #  1     ecut=    60.00 Ry     beta= 0.20
     CG style diagonalization

---- Real-time Memory Report at c_bands before calling an iterative solver
             0 MiB given to the printing process from OS
             0 MiB allocation reported by mallinfo(arena+hblkhd)
         73327 MiB available memory on the node where the printing process lives
------------------
     ethr =  1.00E-05,  avg # of iterations = 27.1

     negative rho (up, down):  5.082E+00 4.993E+00


     ----------------------------------------------------------------

     Non-local correlation energy =              9.337665898560793

     ----------------------------------------------------------------


     total cpu time spent up to now is     2754.1 secs

     total energy              =  -11536.79948409 Ry
     estimated scf accuracy    <     243.24759526 Ry

     total magnetization       =     4.13 Bohr mag/cell
     absolute magnetization    =     4.41 Bohr mag/cell

     iteration #  2     ecut=    60.00 Ry     beta= 0.20
     CG style diagonalization

---- Real-time Memory Report at c_bands before calling an iterative solver
             0 MiB given to the printing process from OS
             0 MiB allocation reported by mallinfo(arena+hblkhd)
         71306 MiB available memory on the node where the printing process lives
------------------
     ethr =  1.00E-02,  avg # of iterations =  4.8

     negative rho (up, down):  5.046E+00 4.963E+00


     ----------------------------------------------------------------

     Non-local correlation energy =              9.292967589904249

     ----------------------------------------------------------------


     total cpu time spent up to now is     3205.2 secs

     total energy              =  -11566.07807427 Ry
     estimated scf accuracy    <     329.53094685 Ry

     total magnetization       =     0.23 Bohr mag/cell
     absolute magnetization    =     4.72 Bohr mag/cell

     iteration #  3     ecut=    60.00 Ry     beta= 0.20
     CG style diagonalization

---- Real-time Memory Report at c_bands before calling an iterative solver
             0 MiB given to the printing process from OS
             0 MiB allocation reported by mallinfo(arena+hblkhd)
         71129 MiB available memory on the node where the printing process lives
------------------
     ethr =  1.00E-02,  avg # of iterations =  3.7

     negative rho (up, down):  5.001E+00 4.926E+00


     ----------------------------------------------------------------

     Non-local correlation energy =              9.258738148528678

     ----------------------------------------------------------------


     total cpu time spent up to now is     3534.5 secs

     total energy              =  -11587.25590363 Ry
     estimated scf accuracy    <      32.99741505 Ry

     total magnetization       =     2.25 Bohr mag/cell
     absolute magnetization    =     6.01 Bohr mag/cell

     iteration #  4     ecut=    60.00 Ry     beta= 0.20
     CG style diagonalization

---- Real-time Memory Report at c_bands before calling an iterative solver
             0 MiB given to the printing process from OS
             0 MiB allocation reported by mallinfo(arena+hblkhd)
         71041 MiB available memory on the node where the printing process lives
------------------
     c_bands:  1 eigenvalues not converged
     ethr =  3.75E-03,  avg # of iterations =  3.3

     negative rho (up, down):  4.986E+00 4.915E+00


     ----------------------------------------------------------------

     Non-local correlation energy =              9.249111493565140

     ----------------------------------------------------------------


     total cpu time spent up to now is     3820.5 secs

     total energy              =  -11588.16696937 Ry
     estimated scf accuracy    <     100.91533796 Ry

     total magnetization       =     2.43 Bohr mag/cell
     absolute magnetization    =     4.05 Bohr mag/cell

     iteration #  5     ecut=    60.00 Ry     beta= 0.20
     CG style diagonalization

---- Real-time Memory Report at c_bands before calling an iterative solver
             0 MiB given to the printing process from OS
             0 MiB allocation reported by mallinfo(arena+hblkhd)
         70868 MiB available memory on the node where the printing process lives
------------------
     ethr =  3.75E-03,  avg # of iterations =  3.0

     negative rho (up, down):  4.975E+00 4.906E+00


     ----------------------------------------------------------------

     Non-local correlation energy =              9.243051520042620

     ----------------------------------------------------------------


     total cpu time spent up to now is     4066.9 secs

     total energy              =  -11590.25785025 Ry
     estimated scf accuracy    <      70.63409464 Ry

     total magnetization       =     2.11 Bohr mag/cell
     absolute magnetization    =     2.56 Bohr mag/cell

     iteration #  6     ecut=    60.00 Ry     beta= 0.20
     CG style diagonalization

---- Real-time Memory Report at c_bands before calling an iterative solver
             0 MiB given to the printing process from OS
             0 MiB allocation reported by mallinfo(arena+hblkhd)
         70769 MiB available memory on the node where the printing process lives
------------------
     ethr =  3.75E-03,  avg # of iterations =  3.0

     negative rho (up, down):  4.964E+00 4.898E+00


     ----------------------------------------------------------------

     Non-local correlation energy =              9.238374960632564

     ----------------------------------------------------------------


     total cpu time spent up to now is     4313.5 secs

     total energy              =  -11591.07335011 Ry
     estimated scf accuracy    <      32.01293616 Ry

     total magnetization       =     2.51 Bohr mag/cell
     absolute magnetization    =     2.82 Bohr mag/cell

     iteration #  7     ecut=    60.00 Ry     beta= 0.20
     CG style diagonalization

---- Real-time Memory Report at c_bands before calling an iterative solver
             0 MiB given to the printing process from OS
             0 MiB allocation reported by mallinfo(arena+hblkhd)
         70574 MiB available memory on the node where the printing process lives
------------------
     ethr =  3.63E-03,  avg # of iterations =  3.0

     negative rho (up, down):  4.945E+00 4.885E+00


     ----------------------------------------------------------------

     Non-local correlation energy =              9.231530948517328

     ----------------------------------------------------------------


     total cpu time spent up to now is     4560.1 secs

     total energy              =  -11591.42319809 Ry
     estimated scf accuracy    <      18.97033028 Ry

     total magnetization       =     1.90 Bohr mag/cell
     absolute magnetization    =     2.23 Bohr mag/cell

     iteration #  8     ecut=    60.00 Ry     beta= 0.20
     CG style diagonalization

---- Real-time Memory Report at c_bands before calling an iterative solver
             0 MiB given to the printing process from OS
             0 MiB allocation reported by mallinfo(arena+hblkhd)
         70452 MiB available memory on the node where the printing process lives
------------------
     ethr =  2.15E-03,  avg # of iterations =  3.0

     negative rho (up, down):  4.927E+00 4.872E+00


     ----------------------------------------------------------------

     Non-local correlation energy =              9.225742660034058

     ----------------------------------------------------------------


     total cpu time spent up to now is     4806.7 secs

     total energy              =  -11591.41320384 Ry
     estimated scf accuracy    <      19.59239165 Ry

     total magnetization       =     2.00 Bohr mag/cell
     absolute magnetization    =     2.29 Bohr mag/cell

     iteration #  9     ecut=    60.00 Ry     beta= 0.20
     CG style diagonalization

---- Real-time Memory Report at c_bands before calling an iterative solver
             0 MiB given to the printing process from OS
             0 MiB allocation reported by mallinfo(arena+hblkhd)
         70282 MiB available memory on the node where the printing process lives
------------------
     ethr =  2.15E-03,  avg # of iterations =  3.0

     negative rho (up, down):  4.913E+00 4.862E+00


     ----------------------------------------------------------------

     Non-local correlation energy =              9.222766978417400

     ----------------------------------------------------------------


     total cpu time spent up to now is     5053.5 secs

     total energy              =  -11591.79594468 Ry
     estimated scf accuracy    <       6.61382711 Ry

     total magnetization       =     1.86 Bohr mag/cell
     absolute magnetization    =     2.13 Bohr mag/cell

     iteration # 10     ecut=    60.00 Ry     beta= 0.20
     CG style diagonalization

---- Real-time Memory Report at c_bands before calling an iterative solver
             0 MiB given to the printing process from OS
             0 MiB allocation reported by mallinfo(arena+hblkhd)
         70150 MiB available memory on the node where the printing process lives
------------------
     ethr =  7.51E-04,  avg # of iterations =  3.0

     negative rho (up, down):  4.902E+00 4.855E+00


     ----------------------------------------------------------------

     Non-local correlation energy =              9.220733002363316

     ----------------------------------------------------------------


     total cpu time spent up to now is     5306.3 secs

     total energy              =  -11591.83992103 Ry
     estimated scf accuracy    <       6.68662305 Ry

     total magnetization       =     1.71 Bohr mag/cell
     absolute magnetization    =     2.00 Bohr mag/cell

     iteration # 11     ecut=    60.00 Ry     beta= 0.20
     CG style diagonalization

---- Real-time Memory Report at c_bands before calling an iterative solver
             0 MiB given to the printing process from OS
             0 MiB allocation reported by mallinfo(arena+hblkhd)
         70176 MiB available memory on the node where the printing process lives
------------------
     ethr =  7.51E-04,  avg # of iterations =  3.0

     negative rho (up, down):  4.887E+00 4.845E+00


     ----------------------------------------------------------------

     Non-local correlation energy =              9.219694091431730

     ----------------------------------------------------------------


     total cpu time spent up to now is     5553.1 secs

     total energy              =  -11591.92879847 Ry
     estimated scf accuracy    <       2.03707463 Ry

     total magnetization       =     1.57 Bohr mag/cell
     absolute magnetization    =     1.84 Bohr mag/cell

     iteration # 12     ecut=    60.00 Ry     beta= 0.20
     CG style diagonalization

---- Real-time Memory Report at c_bands before calling an iterative solver
             0 MiB given to the printing process from OS
             0 MiB allocation reported by mallinfo(arena+hblkhd)
         70168 MiB available memory on the node where the printing process lives
------------------
     ethr =  2.31E-04,  avg # of iterations =  3.1

     negative rho (up, down):  4.874E+00 4.837E+00


     ----------------------------------------------------------------

     Non-local correlation energy =              9.219541361237830

     ----------------------------------------------------------------


     total cpu time spent up to now is     5816.4 secs

     total energy              =  -11591.91583398 Ry
     estimated scf accuracy    <       1.10408093 Ry

     total magnetization       =     1.40 Bohr mag/cell
     absolute magnetization    =     1.67 Bohr mag/cell

     iteration # 13     ecut=    60.00 Ry     beta= 0.20
     CG style diagonalization

---- Real-time Memory Report at c_bands before calling an iterative solver
             0 MiB given to the printing process from OS
             0 MiB allocation reported by mallinfo(arena+hblkhd)
         70137 MiB available memory on the node where the printing process lives
------------------
     ethr =  1.25E-04,  avg # of iterations =  3.0

     negative rho (up, down):  4.862E+00 4.830E+00


     ----------------------------------------------------------------

     Non-local correlation energy =              9.218703836286892

     ----------------------------------------------------------------


     total cpu time spent up to now is     6064.1 secs

     total energy              =  -11591.91752028 Ry
     estimated scf accuracy    <       0.68921672 Ry

     total magnetization       =     1.34 Bohr mag/cell
     absolute magnetization    =     1.60 Bohr mag/cell

     iteration # 14     ecut=    60.00 Ry     beta= 0.20
     CG style diagonalization

---- Real-time Memory Report at c_bands before calling an iterative solver
             0 MiB given to the printing process from OS
             0 MiB allocation reported by mallinfo(arena+hblkhd)
         70139 MiB available memory on the node where the printing process lives
------------------
     ethr =  7.82E-05,  avg # of iterations =  3.1

     negative rho (up, down):  4.853E+00 4.826E+00


     ----------------------------------------------------------------

     Non-local correlation energy =              9.218711275847282

     ----------------------------------------------------------------


     total cpu time spent up to now is     6322.3 secs

     total energy              =  -11591.92917810 Ry
     estimated scf accuracy    <       0.21604524 Ry

     total magnetization       =     1.23 Bohr mag/cell
     absolute magnetization    =     1.46 Bohr mag/cell

     iteration # 15     ecut=    60.00 Ry     beta= 0.20
     CG style diagonalization

---- Real-time Memory Report at c_bands before calling an iterative solver
             0 MiB given to the printing process from OS
             0 MiB allocation reported by mallinfo(arena+hblkhd)
         70144 MiB available memory on the node where the printing process lives
------------------
     c_bands:  2 eigenvalues not converged
     c_bands:  1 eigenvalues not converged
     ethr =  2.45E-05,  avg # of iterations =  3.3

     negative rho (up, down):  4.851E+00 4.825E+00


     ----------------------------------------------------------------

     Non-local correlation energy =              9.219285737709271

     ----------------------------------------------------------------


     total cpu time spent up to now is     6601.7 secs

     total energy              =  -11591.91698708 Ry
     estimated scf accuracy    <       0.39300029 Ry

     total magnetization       =     1.13 Bohr mag/cell
     absolute magnetization    =     1.34 Bohr mag/cell

     iteration # 16     ecut=    60.00 Ry     beta= 0.20
     CG style diagonalization

---- Real-time Memory Report at c_bands before calling an iterative solver
             0 MiB given to the printing process from OS
             0 MiB allocation reported by mallinfo(arena+hblkhd)
         70147 MiB available memory on the node where the printing process lives
------------------
     ethr =  2.45E-05,  avg # of iterations =  3.0

     negative rho (up, down):  4.842E+00 4.821E+00


     ----------------------------------------------------------------

     Non-local correlation energy =              9.217455110231874

     ----------------------------------------------------------------


     total cpu time spent up to now is     6848.4 secs

     total energy              =  -11591.90880038 Ry
     estimated scf accuracy    <       1.00102936 Ry

     total magnetization       =     1.09 Bohr mag/cell
     absolute magnetization    =     1.29 Bohr mag/cell

     iteration # 17     ecut=    60.00 Ry     beta= 0.20
     CG style diagonalization

---- Real-time Memory Report at c_bands before calling an iterative solver
             0 MiB given to the printing process from OS
             0 MiB allocation reported by mallinfo(arena+hblkhd)
         70141 MiB available memory on the node where the printing process lives
------------------
     ethr =  2.45E-05,  avg # of iterations =  3.0

     negative rho (up, down):  4.840E+00 4.820E+00


     ----------------------------------------------------------------

     Non-local correlation energy =              9.216844487780344

     ----------------------------------------------------------------


     total cpu time spent up to now is     7095.5 secs

     total energy              =  -11591.91956724 Ry
     estimated scf accuracy    <       0.37054335 Ry

     total magnetization       =     1.00 Bohr mag/cell
     absolute magnetization    =     1.19 Bohr mag/cell

     iteration # 18     ecut=    60.00 Ry     beta= 0.20
     CG style diagonalization

---- Real-time Memory Report at c_bands before calling an iterative solver
             0 MiB given to the printing process from OS
             0 MiB allocation reported by mallinfo(arena+hblkhd)
         70122 MiB available memory on the node where the printing process lives
------------------
     ethr =  2.45E-05,  avg # of iterations =  3.0

     negative rho (up, down):  4.836E+00 4.819E+00


     ----------------------------------------------------------------

     Non-local correlation energy =              9.215834018253648

     ----------------------------------------------------------------


     total cpu time spent up to now is     7341.9 secs

     total energy              =  -11591.92505401 Ry
     estimated scf accuracy    <       0.24532088 Ry

     total magnetization       =     0.95 Bohr mag/cell
     absolute magnetization    =     1.12 Bohr mag/cell

     iteration # 19     ecut=    60.00 Ry     beta= 0.20
     CG style diagonalization

---- Real-time Memory Report at c_bands before calling an iterative solver
             0 MiB given to the printing process from OS
             0 MiB allocation reported by mallinfo(arena+hblkhd)
         70106 MiB available memory on the node where the printing process lives
------------------
     c_bands:  1 eigenvalues not converged
     ethr =  2.45E-05,  avg # of iterations =  3.1

     negative rho (up, down):  4.834E+00 4.819E+00


     ----------------------------------------------------------------

     Non-local correlation energy =              9.215491461239127

     ----------------------------------------------------------------


     total cpu time spent up to now is     7601.2 secs

     total energy              =  -11591.92839171 Ry
     estimated scf accuracy    <       0.02541386 Ry

     total magnetization       =     0.87 Bohr mag/cell
     absolute magnetization    =     1.04 Bohr mag/cell

     iteration # 20     ecut=    60.00 Ry     beta= 0.20
     CG style diagonalization

---- Real-time Memory Report at c_bands before calling an iterative solver
             0 MiB given to the printing process from OS
             0 MiB allocation reported by mallinfo(arena+hblkhd)
         70121 MiB available memory on the node where the printing process lives
------------------
     c_bands:  1 eigenvalues not converged
     c_bands:  2 eigenvalues not converged
     ethr =  2.88E-06,  avg # of iterations =  3.4

     negative rho (up, down):  4.832E+00 4.818E+00


     ----------------------------------------------------------------

     Non-local correlation energy =              9.214809239486046

     ----------------------------------------------------------------


     total cpu time spent up to now is     7891.0 secs

     total energy              =  -11591.92536522 Ry
     estimated scf accuracy    <       0.12347678 Ry

     total magnetization       =     0.80 Bohr mag/cell
     absolute magnetization    =     0.96 Bohr mag/cell

     iteration # 21     ecut=    60.00 Ry     beta= 0.20
     CG style diagonalization

---- Real-time Memory Report at c_bands before calling an iterative solver
             0 MiB given to the printing process from OS
             0 MiB allocation reported by mallinfo(arena+hblkhd)
         70115 MiB available memory on the node where the printing process lives
------------------
     c_bands:  1 eigenvalues not converged
     ethr =  2.88E-06,  avg # of iterations =  3.2

     negative rho (up, down):  4.832E+00 4.819E+00


     ----------------------------------------------------------------

     Non-local correlation energy =              9.214719870914976

     ----------------------------------------------------------------


     total cpu time spent up to now is     8160.8 secs

     total energy              =  -11591.92800077 Ry
     estimated scf accuracy    <       0.04397288 Ry

     total magnetization       =     0.77 Bohr mag/cell
     absolute magnetization    =     0.92 Bohr mag/cell

     iteration # 22     ecut=    60.00 Ry     beta= 0.20
     CG style diagonalization

---- Real-time Memory Report at c_bands before calling an iterative solver
             0 MiB given to the printing process from OS
             0 MiB allocation reported by mallinfo(arena+hblkhd)
         70107 MiB available memory on the node where the printing process lives
------------------
     ethr =  2.88E-06,  avg # of iterations =  3.0

     negative rho (up, down):  4.831E+00 4.819E+00


     ----------------------------------------------------------------

     Non-local correlation energy =              9.214262912244923

     ----------------------------------------------------------------


     total cpu time spent up to now is     8407.6 secs

     total energy              =  -11591.92849233 Ry
     estimated scf accuracy    <       0.01188338 Ry

     total magnetization       =     0.76 Bohr mag/cell
     absolute magnetization    =     0.90 Bohr mag/cell

     iteration # 23     ecut=    60.00 Ry     beta= 0.20
     CG style diagonalization

---- Real-time Memory Report at c_bands before calling an iterative solver
             0 MiB given to the printing process from OS
             0 MiB allocation reported by mallinfo(arena+hblkhd)
         70112 MiB available memory on the node where the printing process lives
------------------
     ethr =  1.35E-06,  avg # of iterations =  3.3

     negative rho (up, down):  4.830E+00 4.819E+00


     ----------------------------------------------------------------

     Non-local correlation energy =              9.213885165389915

     ----------------------------------------------------------------


     total cpu time spent up to now is     8684.9 secs

     total energy              =  -11591.92834233 Ry
     estimated scf accuracy    <       0.00336465 Ry

     total magnetization       =     0.71 Bohr mag/cell
     absolute magnetization    =     0.84 Bohr mag/cell

     iteration # 24     ecut=    60.00 Ry     beta= 0.20
     CG style diagonalization

---- Real-time Memory Report at c_bands before calling an iterative solver
             0 MiB given to the printing process from OS
             0 MiB allocation reported by mallinfo(arena+hblkhd)
         70098 MiB available memory on the node where the printing process lives
------------------
     c_bands:  1 eigenvalues not converged
     ethr =  3.82E-07,  avg # of iterations =  3.2

     negative rho (up, down):  4.830E+00 4.820E+00


     ----------------------------------------------------------------

     Non-local correlation energy =              9.213509676905380

     ----------------------------------------------------------------


     total cpu time spent up to now is     8955.8 secs

     total energy              =  -11591.92829998 Ry
     estimated scf accuracy    <       0.00365859 Ry

     total magnetization       =     0.66 Bohr mag/cell
     absolute magnetization    =     0.78 Bohr mag/cell

     iteration # 25     ecut=    60.00 Ry     beta= 0.20
     CG style diagonalization

---- Real-time Memory Report at c_bands before calling an iterative solver
             0 MiB given to the printing process from OS
             0 MiB allocation reported by mallinfo(arena+hblkhd)
         70121 MiB available memory on the node where the printing process lives
------------------
     c_bands:  2 eigenvalues not converged
     c_bands:  1 eigenvalues not converged
     ethr =  3.82E-07,  avg # of iterations =  3.1

     negative rho (up, down):  4.829E+00 4.820E+00


     ----------------------------------------------------------------

     Non-local correlation energy =              9.213165349892124

     ----------------------------------------------------------------


     total cpu time spent up to now is     9213.6 secs

     total energy              =  -11591.92856747 Ry
     estimated scf accuracy    <       0.00109725 Ry

     total magnetization       =     0.62 Bohr mag/cell
     absolute magnetization    =     0.74 Bohr mag/cell

     iteration # 26     ecut=    60.00 Ry     beta= 0.20
     CG style diagonalization

---- Real-time Memory Report at c_bands before calling an iterative solver
             0 MiB given to the printing process from OS
             0 MiB allocation reported by mallinfo(arena+hblkhd)
         70085 MiB available memory on the node where the printing process lives
------------------
     ethr =  1.25E-07,  avg # of iterations =  3.0

     negative rho (up, down):  4.829E+00 4.821E+00


     ----------------------------------------------------------------

     Non-local correlation energy =              9.212907384737619

     ----------------------------------------------------------------


     total cpu time spent up to now is     9463.2 secs

     total energy              =  -11591.92865784 Ry
     estimated scf accuracy    <       0.00106100 Ry

     total magnetization       =     0.58 Bohr mag/cell
     absolute magnetization    =     0.69 Bohr mag/cell

     iteration # 27     ecut=    60.00 Ry     beta= 0.20
     CG style diagonalization

---- Real-time Memory Report at c_bands before calling an iterative solver
             0 MiB given to the printing process from OS
             0 MiB allocation reported by mallinfo(arena+hblkhd)
         70085 MiB available memory on the node where the printing process lives
------------------
     ethr =  1.20E-07,  avg # of iterations =  3.1

     negative rho (up, down):  4.830E+00 4.822E+00


     ----------------------------------------------------------------

     Non-local correlation energy =              9.212730631364707

     ----------------------------------------------------------------


     total cpu time spent up to now is     9722.5 secs

     total energy              =  -11591.92867731 Ry
     estimated scf accuracy    <       0.00388787 Ry

     total magnetization       =     0.54 Bohr mag/cell
     absolute magnetization    =     0.65 Bohr mag/cell

     iteration # 28     ecut=    60.00 Ry     beta= 0.20
     CG style diagonalization

---- Real-time Memory Report at c_bands before calling an iterative solver
             0 MiB given to the printing process from OS
             0 MiB allocation reported by mallinfo(arena+hblkhd)
         70149 MiB available memory on the node where the printing process lives
------------------
     ethr =  1.20E-07,  avg # of iterations =  3.1

     negative rho (up, down):  4.831E+00 4.824E+00


     ----------------------------------------------------------------

     Non-local correlation energy =              9.212534295546494

     ----------------------------------------------------------------


     total cpu time spent up to now is     9985.5 secs

     total energy              =  -11591.92878270 Ry
     estimated scf accuracy    <       0.00060868 Ry

     total magnetization       =     0.52 Bohr mag/cell
     absolute magnetization    =     0.62 Bohr mag/cell

     iteration # 29     ecut=    60.00 Ry     beta= 0.20
     CG style diagonalization

---- Real-time Memory Report at c_bands before calling an iterative solver
             0 MiB given to the printing process from OS
             0 MiB allocation reported by mallinfo(arena+hblkhd)
         70147 MiB available memory on the node where the printing process lives
------------------
     ethr =  6.91E-08,  avg # of iterations =  3.2

     negative rho (up, down):  4.831E+00 4.825E+00


     ----------------------------------------------------------------

     Non-local correlation energy =              9.212361338325746

     ----------------------------------------------------------------


     total cpu time spent up to now is    10253.3 secs

     total energy              =  -11591.92879324 Ry
     estimated scf accuracy    <       0.00032829 Ry

     total magnetization       =     0.49 Bohr mag/cell
     absolute magnetization    =     0.58 Bohr mag/cell

     iteration # 30     ecut=    60.00 Ry     beta= 0.20
     CG style diagonalization

---- Real-time Memory Report at c_bands before calling an iterative solver
             0 MiB given to the printing process from OS
             0 MiB allocation reported by mallinfo(arena+hblkhd)
         70154 MiB available memory on the node where the printing process lives
------------------
     ethr =  3.73E-08,  avg # of iterations =  3.0

     negative rho (up, down):  4.832E+00 4.826E+00


     ----------------------------------------------------------------

     Non-local correlation energy =              9.212269669126783

     ----------------------------------------------------------------


     total cpu time spent up to now is    10502.1 secs

     total energy              =  -11591.92878258 Ry
     estimated scf accuracy    <       0.00081773 Ry

     total magnetization       =     0.46 Bohr mag/cell
     absolute magnetization    =     0.54 Bohr mag/cell

     iteration # 31     ecut=    60.00 Ry     beta= 0.20
     CG style diagonalization

---- Real-time Memory Report at c_bands before calling an iterative solver
             0 MiB given to the printing process from OS
             0 MiB allocation reported by mallinfo(arena+hblkhd)
         70155 MiB available memory on the node where the printing process lives
------------------
     ethr =  3.73E-08,  avg # of iterations =  3.0

     negative rho (up, down):  4.832E+00 4.827E+00


     ----------------------------------------------------------------

     Non-local correlation energy =              9.212149807417211

     ----------------------------------------------------------------


     total cpu time spent up to now is    10748.9 secs

     total energy              =  -11591.92878852 Ry
     estimated scf accuracy    <       0.00044236 Ry

     total magnetization       =     0.44 Bohr mag/cell
     absolute magnetization    =     0.51 Bohr mag/cell

     iteration # 32     ecut=    60.00 Ry     beta= 0.20
     CG style diagonalization

---- Real-time Memory Report at c_bands before calling an iterative solver
             0 MiB given to the printing process from OS
             0 MiB allocation reported by mallinfo(arena+hblkhd)
         70130 MiB available memory on the node where the printing process lives
------------------
     c_bands:  1 eigenvalues not converged
     c_bands:  1 eigenvalues not converged
     ethr =  3.73E-08,  avg # of iterations =  3.2

     negative rho (up, down):  4.833E+00 4.828E+00


     ----------------------------------------------------------------

     Non-local correlation energy =              9.212093455472344

     ----------------------------------------------------------------


     total cpu time spent up to now is    11013.3 secs

     total energy              =  -11591.92878635 Ry
     estimated scf accuracy    <       0.00036211 Ry

     total magnetization       =     0.41 Bohr mag/cell
     absolute magnetization    =     0.48 Bohr mag/cell

     iteration # 33     ecut=    60.00 Ry     beta= 0.20
     CG style diagonalization

---- Real-time Memory Report at c_bands before calling an iterative solver
             0 MiB given to the printing process from OS
             0 MiB allocation reported by mallinfo(arena+hblkhd)
         70128 MiB available memory on the node where the printing process lives
------------------
     ethr =  3.73E-08,  avg # of iterations =  3.0

     negative rho (up, down):  4.832E+00 4.828E+00


     ----------------------------------------------------------------

     Non-local correlation energy =              9.212035519130881

     ----------------------------------------------------------------


     total cpu time spent up to now is    11264.8 secs

     total energy              =  -11591.92880177 Ry
     estimated scf accuracy    <       0.00012467 Ry

     total magnetization       =     0.39 Bohr mag/cell
     absolute magnetization    =     0.46 Bohr mag/cell

     iteration # 34     ecut=    60.00 Ry     beta= 0.20
     CG style diagonalization

---- Real-time Memory Report at c_bands before calling an iterative solver
             0 MiB given to the printing process from OS
             0 MiB allocation reported by mallinfo(arena+hblkhd)
         70130 MiB available memory on the node where the printing process lives
------------------
     ethr =  1.42E-08,  avg # of iterations =  3.0

     negative rho (up, down):  4.832E+00 4.828E+00


     ----------------------------------------------------------------

     Non-local correlation energy =              9.211996153301628

     ----------------------------------------------------------------


     total cpu time spent up to now is    11511.2 secs

     total energy              =  -11591.92880427 Ry
     estimated scf accuracy    <       0.00014137 Ry

     total magnetization       =     0.36 Bohr mag/cell
     absolute magnetization    =     0.43 Bohr mag/cell

     iteration # 35     ecut=    60.00 Ry     beta= 0.20
     CG style diagonalization

---- Real-time Memory Report at c_bands before calling an iterative solver
             0 MiB given to the printing process from OS
             0 MiB allocation reported by mallinfo(arena+hblkhd)
         70142 MiB available memory on the node where the printing process lives
------------------
     ethr =  1.42E-08,  avg # of iterations =  3.0

     negative rho (up, down):  4.832E+00 4.828E+00


     ----------------------------------------------------------------

     Non-local correlation energy =              9.211987942469300

     ----------------------------------------------------------------


     total cpu time spent up to now is    11757.4 secs

     total energy              =  -11591.92881693 Ry
     estimated scf accuracy    <       0.00004001 Ry

     total magnetization       =     0.34 Bohr mag/cell
     absolute magnetization    =     0.40 Bohr mag/cell

     iteration # 36     ecut=    60.00 Ry     beta= 0.20
     CG style diagonalization

---- Real-time Memory Report at c_bands before calling an iterative solver
             0 MiB given to the printing process from OS
             0 MiB allocation reported by mallinfo(arena+hblkhd)
         70128 MiB available memory on the node where the printing process lives
------------------
     ethr =  4.54E-09,  avg # of iterations =  3.0

     negative rho (up, down):  4.832E+00 4.828E+00


     ----------------------------------------------------------------

     Non-local correlation energy =              9.211992990079720

     ----------------------------------------------------------------


     total cpu time spent up to now is    12003.6 secs

     total energy              =  -11591.92882858 Ry
     estimated scf accuracy    <       0.00002945 Ry

     total magnetization       =     0.32 Bohr mag/cell
     absolute magnetization    =     0.38 Bohr mag/cell

     iteration # 37     ecut=    60.00 Ry     beta= 0.20
     CG style diagonalization

---- Real-time Memory Report at c_bands before calling an iterative solver
             0 MiB given to the printing process from OS
             0 MiB allocation reported by mallinfo(arena+hblkhd)
         70113 MiB available memory on the node where the printing process lives
------------------
     ethr =  3.34E-09,  avg # of iterations =  3.0

     negative rho (up, down):  4.831E+00 4.828E+00


     ----------------------------------------------------------------

     Non-local correlation energy =              9.211996844188263

     ----------------------------------------------------------------


     total cpu time spent up to now is    12249.7 secs

     total energy              =  -11591.92883485 Ry
     estimated scf accuracy    <       0.00003793 Ry

     total magnetization       =     0.30 Bohr mag/cell
     absolute magnetization    =     0.35 Bohr mag/cell

     iteration # 38     ecut=    60.00 Ry     beta= 0.20
     CG style diagonalization

---- Real-time Memory Report at c_bands before calling an iterative solver
             0 MiB given to the printing process from OS
             0 MiB allocation reported by mallinfo(arena+hblkhd)
         70122 MiB available memory on the node where the printing process lives
------------------
     ethr =  3.34E-09,  avg # of iterations =  3.0

     negative rho (up, down):  4.831E+00 4.828E+00


     ----------------------------------------------------------------

     Non-local correlation energy =              9.211997454603534

     ----------------------------------------------------------------


     total cpu time spent up to now is    12496.5 secs

     total energy              =  -11591.92883983 Ry
     estimated scf accuracy    <       0.00007869 Ry

     total magnetization       =     0.28 Bohr mag/cell
     absolute magnetization    =     0.33 Bohr mag/cell

     iteration # 39     ecut=    60.00 Ry     beta= 0.20
     CG style diagonalization

---- Real-time Memory Report at c_bands before calling an iterative solver
             0 MiB given to the printing process from OS
             0 MiB allocation reported by mallinfo(arena+hblkhd)
         70105 MiB available memory on the node where the printing process lives
------------------
     ethr =  3.34E-09,  avg # of iterations =  3.0

     negative rho (up, down):  4.831E+00 4.828E+00


     ----------------------------------------------------------------

     Non-local correlation energy =              9.212022184735076

     ----------------------------------------------------------------


     total cpu time spent up to now is    12742.5 secs

     total energy              =  -11591.92884951 Ry
     estimated scf accuracy    <       0.00002170 Ry

     total magnetization       =     0.26 Bohr mag/cell
     absolute magnetization    =     0.31 Bohr mag/cell

     iteration # 40     ecut=    60.00 Ry     beta= 0.20
     CG style diagonalization

---- Real-time Memory Report at c_bands before calling an iterative solver
             0 MiB given to the printing process from OS
             0 MiB allocation reported by mallinfo(arena+hblkhd)
         70105 MiB available memory on the node where the printing process lives
------------------
     ethr =  2.46E-09,  avg # of iterations =  3.0

     negative rho (up, down):  4.830E+00 4.828E+00


     ----------------------------------------------------------------

     Non-local correlation energy =              9.212047410049390

     ----------------------------------------------------------------


     total cpu time spent up to now is    12988.6 secs

     total energy              =  -11591.92885596 Ry
     estimated scf accuracy    <       0.00001833 Ry

     total magnetization       =     0.24 Bohr mag/cell
     absolute magnetization    =     0.28 Bohr mag/cell

     iteration # 41     ecut=    60.00 Ry     beta= 0.20
     CG style diagonalization

---- Real-time Memory Report at c_bands before calling an iterative solver
             0 MiB given to the printing process from OS
             0 MiB allocation reported by mallinfo(arena+hblkhd)
         70088 MiB available memory on the node where the printing process lives
------------------
     ethr =  2.08E-09,  avg # of iterations =  3.0

     negative rho (up, down):  4.830E+00 4.828E+00


     ----------------------------------------------------------------

     Non-local correlation energy =              9.212062077695983

     ----------------------------------------------------------------


     total cpu time spent up to now is    13234.6 secs

     total energy              =  -11591.92885879 Ry
     estimated scf accuracy    <       0.00003489 Ry

     total magnetization       =     0.22 Bohr mag/cell
     absolute magnetization    =     0.25 Bohr mag/cell

     iteration # 42     ecut=    60.00 Ry     beta= 0.20
     CG style diagonalization

---- Real-time Memory Report at c_bands before calling an iterative solver
             0 MiB given to the printing process from OS
             0 MiB allocation reported by mallinfo(arena+hblkhd)
         70107 MiB available memory on the node where the printing process lives
------------------
     ethr =  2.08E-09,  avg # of iterations =  3.0

     negative rho (up, down):  4.830E+00 4.828E+00


     ----------------------------------------------------------------

     Non-local correlation energy =              9.212075954785908

     ----------------------------------------------------------------


     total cpu time spent up to now is    13480.6 secs

     total energy              =  -11591.92886099 Ry
     estimated scf accuracy    <       0.00001292 Ry

     total magnetization       =     0.20 Bohr mag/cell
     absolute magnetization    =     0.24 Bohr mag/cell

     iteration # 43     ecut=    60.00 Ry     beta= 0.20
     CG style diagonalization

---- Real-time Memory Report at c_bands before calling an iterative solver
             0 MiB given to the printing process from OS
             0 MiB allocation reported by mallinfo(arena+hblkhd)
         70114 MiB available memory on the node where the printing process lives
------------------
     ethr =  1.47E-09,  avg # of iterations =  3.0

     negative rho (up, down):  4.829E+00 4.828E+00


     ----------------------------------------------------------------

     Non-local correlation energy =              9.212104653446147

     ----------------------------------------------------------------


     total cpu time spent up to now is    13726.7 secs

     total energy              =  -11591.92886304 Ry
     estimated scf accuracy    <       0.00001131 Ry

     total magnetization       =     0.19 Bohr mag/cell
     absolute magnetization    =     0.23 Bohr mag/cell

     iteration # 44     ecut=    60.00 Ry     beta= 0.20
     CG style diagonalization

---- Real-time Memory Report at c_bands before calling an iterative solver
             0 MiB given to the printing process from OS
             0 MiB allocation reported by mallinfo(arena+hblkhd)
         70081 MiB available memory on the node where the printing process lives
------------------
     ethr =  1.28E-09,  avg # of iterations =  3.0

     negative rho (up, down):  4.829E+00 4.828E+00


     ----------------------------------------------------------------

     Non-local correlation energy =              9.212122733203246

     ----------------------------------------------------------------


     total cpu time spent up to now is    13973.4 secs

     total energy              =  -11591.92886424 Ry
     estimated scf accuracy    <       0.00001144 Ry

     total magnetization       =     0.17 Bohr mag/cell
     absolute magnetization    =     0.20 Bohr mag/cell

     iteration # 45     ecut=    60.00 Ry     beta= 0.20
     CG style diagonalization

---- Real-time Memory Report at c_bands before calling an iterative solver
             0 MiB given to the printing process from OS
             0 MiB allocation reported by mallinfo(arena+hblkhd)
         70096 MiB available memory on the node where the printing process lives
------------------
     ethr =  1.28E-09,  avg # of iterations =  3.0

     negative rho (up, down):  4.829E+00 4.827E+00


     ----------------------------------------------------------------

     Non-local correlation energy =              9.212143051561849

     ----------------------------------------------------------------


     total cpu time spent up to now is    14222.3 secs

     total energy              =  -11591.92886497 Ry
     estimated scf accuracy    <       0.00000418 Ry

     total magnetization       =     0.16 Bohr mag/cell
     absolute magnetization    =     0.19 Bohr mag/cell

     iteration # 46     ecut=    60.00 Ry     beta= 0.20
     CG style diagonalization

---- Real-time Memory Report at c_bands before calling an iterative solver
             0 MiB given to the printing process from OS
             0 MiB allocation reported by mallinfo(arena+hblkhd)
         70157 MiB available memory on the node where the printing process lives
------------------
     ethr =  4.74E-10,  avg # of iterations =  3.0

     negative rho (up, down):  4.829E+00 4.827E+00


     ----------------------------------------------------------------

     Non-local correlation energy =              9.212163537932801

     ----------------------------------------------------------------


     total cpu time spent up to now is    14469.8 secs

     total energy              =  -11591.92886508 Ry
     estimated scf accuracy    <       0.00000352 Ry

     total magnetization       =     0.14 Bohr mag/cell
     absolute magnetization    =     0.17 Bohr mag/cell

     iteration # 47     ecut=    60.00 Ry     beta= 0.20
     CG style diagonalization

---- Real-time Memory Report at c_bands before calling an iterative solver
             0 MiB given to the printing process from OS
             0 MiB allocation reported by mallinfo(arena+hblkhd)
         70123 MiB available memory on the node where the printing process lives
------------------
     ethr =  4.00E-10,  avg # of iterations =  3.0

     negative rho (up, down):  4.828E+00 4.827E+00


     ----------------------------------------------------------------

     Non-local correlation energy =              9.212178581091115

     ----------------------------------------------------------------


     total cpu time spent up to now is    14715.9 secs

     total energy              =  -11591.92886500 Ry
     estimated scf accuracy    <       0.00000352 Ry

     total magnetization       =     0.13 Bohr mag/cell
     absolute magnetization    =     0.15 Bohr mag/cell

     iteration # 48     ecut=    60.00 Ry     beta= 0.20
     CG style diagonalization

---- Real-time Memory Report at c_bands before calling an iterative solver
             0 MiB given to the printing process from OS
             0 MiB allocation reported by mallinfo(arena+hblkhd)
         70175 MiB available memory on the node where the printing process lives
------------------
     ethr =  3.99E-10,  avg # of iterations =  3.0

     negative rho (up, down):  4.828E+00 4.827E+00


     ----------------------------------------------------------------

     Non-local correlation energy =              9.212184204372800

     ----------------------------------------------------------------


     total cpu time spent up to now is    14961.9 secs

     total energy              =  -11591.92886503 Ry
     estimated scf accuracy    <       0.00000648 Ry

     total magnetization       =     0.12 Bohr mag/cell
     absolute magnetization    =     0.14 Bohr mag/cell

     iteration # 49     ecut=    60.00 Ry     beta= 0.20
     CG style diagonalization

---- Real-time Memory Report at c_bands before calling an iterative solver
             0 MiB given to the printing process from OS
             0 MiB allocation reported by mallinfo(arena+hblkhd)
         70155 MiB available memory on the node where the printing process lives
------------------
     ethr =  3.99E-10,  avg # of iterations =  3.0

     negative rho (up, down):  4.828E+00 4.827E+00


     ----------------------------------------------------------------

     Non-local correlation energy =              9.212193726233233

     ----------------------------------------------------------------


     total cpu time spent up to now is    15208.0 secs

     total energy              =  -11591.92886508 Ry
     estimated scf accuracy    <       0.00000285 Ry

     total magnetization       =     0.11 Bohr mag/cell
     absolute magnetization    =     0.13 Bohr mag/cell

     iteration # 50     ecut=    60.00 Ry     beta= 0.20
     CG style diagonalization

---- Real-time Memory Report at c_bands before calling an iterative solver
             0 MiB given to the printing process from OS
             0 MiB allocation reported by mallinfo(arena+hblkhd)
         70176 MiB available memory on the node where the printing process lives
------------------
     ethr =  3.24E-10,  avg # of iterations =  3.0

     negative rho (up, down):  4.828E+00 4.827E+00


     ----------------------------------------------------------------

     Non-local correlation energy =              9.212204215796579

     ----------------------------------------------------------------


     total cpu time spent up to now is    15454.0 secs

     total energy              =  -11591.92886511 Ry
     estimated scf accuracy    <       0.00000145 Ry

     total magnetization       =     0.10 Bohr mag/cell
     absolute magnetization    =     0.12 Bohr mag/cell

     iteration # 51     ecut=    60.00 Ry     beta= 0.20
     CG style diagonalization

---- Real-time Memory Report at c_bands before calling an iterative solver
             0 MiB given to the printing process from OS
             0 MiB allocation reported by mallinfo(arena+hblkhd)
         70186 MiB available memory on the node where the printing process lives
------------------
     ethr =  1.65E-10,  avg # of iterations =  3.0

     negative rho (up, down):  4.828E+00 4.827E+00


     ----------------------------------------------------------------

     Non-local correlation energy =              9.212207218058719

     ----------------------------------------------------------------


     total cpu time spent up to now is    15700.9 secs

     total energy              =  -11591.92886534 Ry
     estimated scf accuracy    <       0.00000213 Ry

     total magnetization       =     0.09 Bohr mag/cell
     absolute magnetization    =     0.11 Bohr mag/cell

     iteration # 52     ecut=    60.00 Ry     beta= 0.20
     CG style diagonalization

---- Real-time Memory Report at c_bands before calling an iterative solver
             0 MiB given to the printing process from OS
             0 MiB allocation reported by mallinfo(arena+hblkhd)
         70137 MiB available memory on the node where the printing process lives
------------------
     ethr =  1.65E-10,  avg # of iterations =  3.0

     negative rho (up, down):  4.828E+00 4.827E+00


     ----------------------------------------------------------------

     Non-local correlation energy =              9.212209378527483

     ----------------------------------------------------------------


     total cpu time spent up to now is    15947.5 secs

     total energy              =  -11591.92886559 Ry
     estimated scf accuracy    <       0.00000197 Ry

     total magnetization       =     0.08 Bohr mag/cell
     absolute magnetization    =     0.10 Bohr mag/cell

     iteration # 53     ecut=    60.00 Ry     beta= 0.20
     CG style diagonalization

---- Real-time Memory Report at c_bands before calling an iterative solver
             0 MiB given to the printing process from OS
             0 MiB allocation reported by mallinfo(arena+hblkhd)
         70170 MiB available memory on the node where the printing process lives
------------------
     ethr =  1.65E-10,  avg # of iterations =  3.0

     negative rho (up, down):  4.828E+00 4.827E+00


     ----------------------------------------------------------------

     Non-local correlation energy =              9.212212647253656

     ----------------------------------------------------------------


     total cpu time spent up to now is    16193.6 secs

     total energy              =  -11591.92886602 Ry
     estimated scf accuracy    <       0.00000128 Ry

     total magnetization       =     0.08 Bohr mag/cell
     absolute magnetization    =     0.10 Bohr mag/cell

     iteration # 54     ecut=    60.00 Ry     beta= 0.20
     CG style diagonalization

---- Real-time Memory Report at c_bands before calling an iterative solver
             0 MiB given to the printing process from OS
             0 MiB allocation reported by mallinfo(arena+hblkhd)
         70186 MiB available memory on the node where the printing process lives
------------------
     ethr =  1.45E-10,  avg # of iterations =  3.0

     negative rho (up, down):  4.828E+00 4.828E+00


     ----------------------------------------------------------------

     Non-local correlation energy =              9.212214474274433

     ----------------------------------------------------------------


     total cpu time spent up to now is    16439.9 secs

     total energy              =  -11591.92886633 Ry
     estimated scf accuracy    <       0.00000175 Ry

     total magnetization       =     0.07 Bohr mag/cell
     absolute magnetization    =     0.09 Bohr mag/cell

     iteration # 55     ecut=    60.00 Ry     beta= 0.20
     CG style diagonalization

---- Real-time Memory Report at c_bands before calling an iterative solver
             0 MiB given to the printing process from OS
             0 MiB allocation reported by mallinfo(arena+hblkhd)
         70160 MiB available memory on the node where the printing process lives
------------------
     ethr =  1.45E-10,  avg # of iterations =  3.0

     negative rho (up, down):  4.828E+00 4.828E+00


     ----------------------------------------------------------------

     Non-local correlation energy =              9.212188609981691

     ----------------------------------------------------------------

 
     Magnetic moment per site  (integrated on atomic sphere of radius R)
     atom   1 (R=0.037)  charge=  9.6552  magn=  0.0004
     atom   2 (R=0.037)  charge=  9.6774  magn=  0.0004
     atom   3 (R=0.037)  charge=  9.6800  magn= -0.0000
     atom   4 (R=0.037)  charge=  9.6765  magn=  0.0094
     atom   5 (R=0.037)  charge=  9.6905  magn=  0.0077
     atom   6 (R=0.037)  charge=  9.6787  magn=  0.0013
     atom   7 (R=0.037)  charge=  9.7070  magn=  0.0008
     atom   8 (R=0.037)  charge=  9.6750  magn=  0.0001
     atom   9 (R=0.037)  charge=  9.6657  magn=  0.0003
     atom  10 (R=0.037)  charge=  9.6733  magn=  0.0031
     atom  11 (R=0.037)  charge=  9.6599  magn=  0.0001
     atom  12 (R=0.037)  charge=  9.6786  magn= -0.0001
     atom  13 (R=0.037)  charge=  9.6831  magn=  0.0019
     atom  14 (R=0.037)  charge=  9.7054  magn=  0.0002
     atom  15 (R=0.037)  charge=  9.6827  magn=  0.0001
     atom  16 (R=0.037)  charge=  9.6846  magn= -0.0002
     atom  17 (R=0.037)  charge=  9.6798  magn= -0.0002
     atom  18 (R=0.037)  charge=  9.6925  magn=  0.0002
     atom  19 (R=0.037)  charge=  9.6717  magn=  0.0012
     atom  20 (R=0.037)  charge=  9.6954  magn= -0.0002
     atom  21 (R=0.037)  charge=  9.6810  magn=  0.0003
     atom  22 (R=0.037)  charge=  9.6936  magn= -0.0000
     atom  23 (R=0.037)  charge=  9.6883  magn=  0.0009
     atom  24 (R=0.037)  charge=  9.6852  magn= -0.0002
     atom  25 (R=0.037)  charge=  9.6847  magn=  0.0003
     atom  26 (R=0.037)  charge=  9.6983  magn= -0.0001
     atom  27 (R=0.037)  charge=  9.6745  magn=  0.0015
     atom  28 (R=0.037)  charge=  9.6756  magn=  0.0001
     atom  29 (R=0.037)  charge=  9.6798  magn=  0.0002
     atom  30 (R=0.037)  charge=  9.6921  magn=  0.0000
     atom  31 (R=0.037)  charge=  9.6918  magn= -0.0001
     atom  32 (R=0.037)  charge=  9.6722  magn=  0.0003
     atom  33 (R=0.037)  charge=  9.6767  magn= -0.0002
     atom  34 (R=0.037)  charge=  9.6885  magn= -0.0005
     atom  35 (R=0.037)  charge=  9.6715  magn=  0.0020
     atom  36 (R=0.037)  charge=  9.6775  magn=  0.0001
     atom  37 (R=0.037)  charge=  9.6768  magn=  0.0004
     atom  38 (R=0.037)  charge=  9.6700  magn=  0.0001
     atom  39 (R=0.037)  charge=  9.6731  magn= -0.0001
     atom  40 (R=0.037)  charge=  9.6958  magn=  0.0006
     atom  41 (R=0.037)  charge=  9.6774  magn=  0.0001
     atom  42 (R=0.037)  charge=  9.6630  magn=  0.0012
     atom  43 (R=0.037)  charge=  9.6794  magn=  0.0002
     atom  44 (R=0.037)  charge=  9.6727  magn=  0.0003
     atom  45 (R=0.037)  charge=  9.6744  magn=  0.0001
     atom  46 (R=0.037)  charge=  9.6771  magn=  0.0005
     atom  47 (R=0.037)  charge=  9.6712  magn=  0.0000
     atom  48 (R=0.037)  charge=  9.6801  magn= -0.0001
     atom  49 (R=0.037)  charge=  9.6999  magn=  0.0005
     atom  50 (R=0.037)  charge=  9.6741  magn= -0.0002
     atom  51 (R=0.037)  charge=  9.6803  magn=  0.0005
     atom  52 (R=0.037)  charge=  9.6743  magn=  0.0005
     atom  53 (R=0.037)  charge=  9.6629  magn=  0.0027
     atom  54 (R=0.037)  charge=  9.6768  magn= -0.0002
     atom  55 (R=0.037)  charge=  9.7047  magn= -0.0001
     atom  56 (R=0.037)  charge=  0.8055  magn=  0.0001

     total cpu time spent up to now is    16685.9 secs

     End of self-consistent calculation

 ------ SPIN UP ------------


          k = 0.0000 0.0000 0.0000 (211851 PWs)   bands (ev):

   -56.0516 -55.8981 -55.8108 -55.7854 -55.7162 -55.6914 -55.6606 -55.6084
   -55.5784 -55.5642 -55.5476 -55.5258 -55.5175 -55.5131 -55.4736 -55.4675
   -55.4502 -55.4470 -55.4368 -55.4132 -55.4033 -55.3943 -55.3862 -55.3811
   -55.3731 -55.3634 -55.3578 -55.3398 -55.3300 -55.3238 -55.3198 -55.3098
   -55.3034 -55.2992 -55.2927 -55.2926 -55.2859 -55.2793 -55.2710 -55.2585
   -55.2511 -55.2418 -55.2301 -55.2294 -55.2163 -55.2113 -55.2042 -55.1928
   -55.1676 -55.1626 -55.1565 -55.1458 -55.1374 -55.1346 -55.1276 -55.1230
   -55.1120 -55.1113 -55.0993 -55.0920 -55.0850 -55.0776 -55.0735 -55.0625
   -55.0589 -55.0539 -55.0479 -55.0410 -55.0390 -55.0356 -55.0274 -55.0181
   -55.0133 -55.0076 -55.0024 -55.0008 -54.9838 -54.9811 -54.9752 -54.9662
   -54.9622 -54.9588 -54.9518 -54.9428 -54.9383 -54.9349 -54.9290 -54.9183
   -54.9108 -54.9034 -54.8960 -54.8876 -54.8788 -54.8753 -54.8677 -54.8660
   -54.8576 -54.8527 -54.8497 -54.8458 -54.8456 -54.8392 -54.8242 -54.8152
   -54.8140 -54.8116 -54.8087 -54.8055 -54.7969 -54.7866 -54.7787 -54.7745
   -54.7708 -54.7663 -54.7642 -54.7578 -54.7567 -54.7535 -54.7524 -54.7505
   -54.7411 -54.7364 -54.7355 -54.7339 -54.7270 -54.7181 -54.7146 -54.6990
   -54.6979 -54.6854 -54.6788 -54.6711 -54.6673 -54.6446 -54.6414 -54.6236
   -54.6182 -54.6091 -54.6083 -54.6067 -54.5997 -54.5792 -54.5739 -54.5723
   -54.5635 -54.5589 -54.5535 -54.5404 -54.5188 -54.5026 -54.4984 -54.4771
   -54.4742 -54.4236 -54.4212 -54.4180 -54.4112 -54.3921 -54.3842 -54.3795
   -54.3403 -54.3166 -54.2799 -54.2750 -54.2693 -10.9466 -10.0256  -9.9816
    -9.7941  -9.1822  -9.0887  -9.0585  -9.0384  -8.9985  -8.8582  -8.8016
    -8.7095  -8.6922  -8.6448  -8.5672  -8.5359  -8.5025  -8.4936  -8.4582
    -8.3509  -8.2604  -8.2326  -8.2136  -8.1469  -8.1335  -8.1085  -8.0902
    -8.0816  -8.0433  -8.0126  -7.9995  -7.9965  -7.9355  -7.9147  -7.9085
    -7.8893  -7.8656  -7.8410  -7.8100  -7.7703  -7.7542  -7.7425  -7.6930
    -7.6687  -7.6401  -7.6130  -7.5979  -7.5595  -7.5327  -7.5199  -7.5056
    -7.4523  -7.4250  -7.3612  -7.3491  -7.3122  -7.2543  -7.2390  -7.2278
    -7.1926  -7.1828  -7.1644  -7.1381  -7.1176  -7.1012  -7.0635  -7.0463
    -7.0373  -7.0043  -6.9961  -6.9749  -6.9656  -6.9346  -6.9158  -6.9069
    -6.8843  -6.8804  -6.8237  -6.8181  -6.7523  -6.7349  -6.7154  -6.6898
    -6.6719  -6.6461  -6.6409  -6.6284  -6.5760  -6.5682  -6.5483  -6.4977
    -6.4775  -6.4500  -6.4354  -6.4209  -6.3702  -6.3348  -6.3200  -6.3064
    -6.2942  -6.2612  -6.2058  -6.1784  -6.1352  -6.1057  -6.0929  -6.0704
    -6.0480  -5.9962  -5.9392  -5.9276  -5.9039  -5.8736  -5.8355  -5.7980
    -5.7721  -5.7313  -5.6858  -5.6711  -5.6527  -5.6293  -5.6238  -5.5484
    -5.5446  -5.5285  -5.5037  -5.4832  -5.4652  -5.4410  -5.4134  -5.4044
    -5.3924  -5.3694  -5.3568  -5.3144  -5.3045  -5.2828  -5.2442  -5.2298
    -5.2067  -5.1832  -5.1601  -5.1112  -5.0884  -5.0761  -5.0595  -5.0300
    -5.0202  -5.0029  -4.9811  -4.9629  -4.9137  -4.9053  -4.8815  -4.8507
    -4.8394  -4.8350  -4.8055  -4.7822  -4.7577  -4.7126  -4.6900  -4.6861
    -4.6705  -4.6536  -4.5943  -4.5935  -4.5717  -4.5448  -4.5221  -4.4996
    -4.4715  -4.4569  -4.4356  -4.4215  -4.3995  -4.3739  -4.3593  -4.3425
    -4.3234  -4.3158  -4.3010  -4.2481  -4.2345  -4.1978  -4.1870  -4.1790
    -4.1641  -4.1242  -4.1016  -4.0824  -4.0630  -4.0614  -4.0533  -4.0256
    -4.0039  -3.9706  -3.9517  -3.9355  -3.9260  -3.9135  -3.8985  -3.8765
    -3.8654  -3.8462  -3.8393  -3.8073  -3.7944  -3.7807  -3.7586  -3.7361
    -3.7290  -3.7109  -3.6730  -3.6665  -3.6463  -3.6356  -3.6290  -3.6075
    -3.5954  -3.5542  -3.5465  -3.5319  -3.5141  -3.5044  -3.4813  -3.4722
    -3.4635  -3.4427  -3.4354  -3.4260  -3.4152  -3.4039  -3.3937  -3.3711
    -3.3549  -3.3498  -3.3418  -3.3277  -3.3034  -3.2908  -3.2889  -3.2783
    -3.2631  -3.2549  -3.2421  -3.2241  -3.2194  -3.1914  -3.1881  -3.1669
    -3.1488  -3.1249  -3.1196  -3.1053  -3.0938  -3.0776  -3.0639  -3.0435
    -3.0330  -3.0038  -2.9764  -2.9621  -2.9606  -2.9258  -2.9088  -2.8925
    -2.8860  -2.8652  -2.8197  -2.7831  -2.7335  -2.7253  -2.6987  -2.6581
    -2.5930  -2.5714  -2.5486  -2.5113  -2.4964  -2.4657  -2.4422  -2.4236
    -2.4014  -2.3939  -2.3542  -2.3151  -2.3073  -2.2913  -2.2807  -2.2621
    -2.2014  -2.1452  -2.1239  -2.0795  -2.0514  -2.0036  -1.9312  -1.8899
    -1.7669  -1.7187  -1.6702  -1.5730  -1.5258  -1.5123  -1.1114  -0.9563
    -0.8148  -0.7617  -0.7323  -0.5713  -0.5204  -0.4505  -0.4405  -0.3999
    -0.3078  -0.2161  -0.1941  -0.1239   0.0659   0.1435   0.2015   0.3462
     0.6889   0.8113   0.8604   0.9597   1.0095   1.1273   1.1654   1.2262
     1.3101   1.3190   1.3810   1.4903   1.5628   1.6892   1.7572   1.8072
     1.8759   2.0169   2.0776   2.1417   2.1966   2.2131   2.2601   2.3393
     2.4081   2.4339   2.4937   2.4952   2.5128   2.5230   2.5377   2.6033
     2.6530   2.6924   2.7021   2.7105   2.7421   2.7476   2.7721   2.8251
     2.8438

     occupation numbers 
[...]
     atom   12 type  1   force =    -0.00113025    0.01904393   -0.00803762
     atom   13 type  1   force =     0.02353716   -0.00167538    0.00469142
     atom   14 type  1   force =     0.00471880    0.00987710   -0.01463527
     atom   15 type  1   force =     0.02209958    0.01157222   -0.00123017
     atom   16 type  1   force =    -0.02376939    0.00116960    0.00223509
     atom   17 type  1   force =    -0.00662559   -0.02255581   -0.00643555
     atom   18 type  1   force =    -0.01205507    0.00505543    0.01087630
     atom   19 type  1   force =    -0.01122615    0.00673889   -0.00591075
     atom   20 type  1   force =     0.01031564   -0.00803095    0.00213449
     atom   21 type  1   force =     0.01005739    0.01750513    0.00459142
     atom   22 type  1   force =    -0.00219426   -0.01497733   -0.00854623
     atom   23 type  1   force =    -0.00720385    0.01118812    0.02234609
     atom   24 type  1   force =    -0.02285677    0.00637006   -0.00412729
     atom   25 type  1   force =    -0.02022773   -0.01421103    0.02050393
     atom   26 type  1   force =    -0.01080124   -0.01120762   -0.00193742
     atom   27 type  1   force =     0.00747065   -0.01774889    0.00690972
     atom   28 type  1   force =    -0.00159671    0.00746627    0.00438170
     atom   29 type  1   force =     0.00130855    0.00588977    0.00144034
     atom   30 type  1   force =    -0.00999934   -0.00087007   -0.01024848
     atom   31 type  1   force =    -0.00917096    0.01242557   -0.00161281
     atom   32 type  1   force =     0.01625714    0.00108344    0.00209347
     atom   33 type  1   force =    -0.00499224   -0.00364332   -0.01928186
     atom   34 type  1   force =     0.01345890   -0.01709642   -0.02069538
     atom   35 type  1   force =     0.00054832   -0.00676733   -0.00347771
     atom   36 type  1   force =    -0.00758433    0.01331378    0.01567142
     atom   37 type  1   force =     0.01868960   -0.00496004    0.00883144
     atom   38 type  1   force =    -0.00443370    0.00196276    0.01672792
     atom   39 type  1   force =    -0.01711385   -0.00781273   -0.00805384
     atom   40 type  1   force =     0.01214074    0.01305907   -0.00133678
     atom   41 type  1   force =    -0.01200469    0.01342795   -0.02242884
     atom   42 type  1   force =    -0.00413181    0.01929680    0.00061045
     atom   43 type  1   force =    -0.00608724    0.01373699   -0.01517388
     atom   44 type  1   force =    -0.00347993   -0.02036960    0.00663338
     atom   45 type  1   force =     0.00067774   -0.02042861    0.00382070
     atom   46 type  1   force =     0.01086246   -0.01997991    0.00700973
     atom   47 type  1   force =    -0.00090974   -0.00005596   -0.02007093
     atom   48 type  1   force =     0.00641875   -0.02241817   -0.00872441
     atom   49 type  1   force =    -0.00186124   -0.00864428    0.01190564
     atom   50 type  1   force =     0.00064631   -0.00767198   -0.02107457
     atom   51 type  1   force =    -0.00706714    0.02008035    0.00842453
     atom   52 type  1   force =    -0.01652111    0.01180651    0.00544386
     atom   53 type  1   force =     0.00472289   -0.01587495   -0.01293311
     atom   54 type  1   force =    -0.00844101   -0.01228496   -0.01775559
     atom   55 type  1   force =     0.01608744   -0.00074538   -0.01191441
     atom   56 type  2   force =     0.00000000    0.00000000    0.00000000
     The Hubbard contrib.    to forces
     atom    1 type  1   force =     0.00000000    0.00000000    0.00000000
     atom    2 type  1   force =     0.00000000    0.00000000    0.00000000
     atom    3 type  1   force =     0.00000000    0.00000000    0.00000000
     atom    4 type  1   force =     0.00000000    0.00000000    0.00000000
     atom    5 type  1   force =     0.00000000    0.00000000    0.00000000
     atom    6 type  1   force =     0.00000000    0.00000000    0.00000000
     atom    7 type  1   force =     0.00000000    0.00000000    0.00000000
     atom    8 type  1   force =     0.00000000    0.00000000    0.00000000
     atom    9 type  1   force =     0.00000000    0.00000000    0.00000000
     atom   10 type  1   force =     0.00000000    0.00000000    0.00000000
     atom   11 type  1   force =     0.00000000    0.00000000    0.00000000
     atom   12 type  1   force =     0.00000000    0.00000000    0.00000000
     atom   13 type  1   force =     0.00000000    0.00000000    0.00000000
     atom   14 type  1   force =     0.00000000    0.00000000    0.00000000
     atom   15 type  1   force =     0.00000000    0.00000000    0.00000000
     atom   16 type  1   force =     0.00000000    0.00000000    0.00000000
     atom   17 type  1   force =     0.00000000    0.00000000    0.00000000
     atom   18 type  1   force =     0.00000000    0.00000000    0.00000000
     atom   19 type  1   force =     0.00000000    0.00000000    0.00000000
     atom   20 type  1   force =     0.00000000    0.00000000    0.00000000
     atom   21 type  1   force =     0.00000000    0.00000000    0.00000000
     atom   22 type  1   force =     0.00000000    0.00000000    0.00000000
     atom   23 type  1   force =     0.00000000    0.00000000    0.00000000
     atom   24 type  1   force =     0.00000000    0.00000000    0.00000000
     atom   25 type  1   force =     0.00000000    0.00000000    0.00000000
     atom   26 type  1   force =     0.00000000    0.00000000    0.00000000
     atom   27 type  1   force =     0.00000000    0.00000000    0.00000000
     atom   28 type  1   force =     0.00000000    0.00000000    0.00000000
     atom   29 type  1   force =     0.00000000    0.00000000    0.00000000
     atom   30 type  1   force =     0.00000000    0.00000000    0.00000000
     atom   31 type  1   force =     0.00000000    0.00000000    0.00000000
     atom   32 type  1   force =     0.00000000    0.00000000    0.00000000
     atom   33 type  1   force =     0.00000000    0.00000000    0.00000000
     atom   34 type  1   force =     0.00000000    0.00000000    0.00000000
     atom   35 type  1   force =     0.00000000    0.00000000    0.00000000
     atom   36 type  1   force =     0.00000000    0.00000000    0.00000000
     atom   37 type  1   force =     0.00000000    0.00000000    0.00000000
     atom   38 type  1   force =     0.00000000    0.00000000    0.00000000
     atom   39 type  1   force =     0.00000000    0.00000000    0.00000000
     atom   40 type  1   force =     0.00000000    0.00000000    0.00000000
     atom   41 type  1   force =     0.00000000    0.00000000    0.00000000
     atom   42 type  1   force =     0.00000000    0.00000000    0.00000000
     atom   43 type  1   force =     0.00000000    0.00000000    0.00000000
     atom   44 type  1   force =     0.00000000    0.00000000    0.00000000
     atom   45 type  1   force =     0.00000000    0.00000000    0.00000000
     atom   46 type  1   force =     0.00000000    0.00000000    0.00000000
     atom   47 type  1   force =     0.00000000    0.00000000    0.00000000
     atom   48 type  1   force =     0.00000000    0.00000000    0.00000000
     atom   49 type  1   force =     0.00000000    0.00000000    0.00000000
     atom   50 type  1   force =     0.00000000    0.00000000    0.00000000
     atom   51 type  1   force =     0.00000000    0.00000000    0.00000000
     atom   52 type  1   force =     0.00000000    0.00000000    0.00000000
     atom   53 type  1   force =     0.00000000    0.00000000    0.00000000
     atom   54 type  1   force =     0.00000000    0.00000000    0.00000000
     atom   55 type  1   force =     0.00000000    0.00000000    0.00000000
     atom   56 type  2   force =     0.00000000    0.00000000    0.00000000
     The SCF correction term to forces
     atom    1 type  1   force =     0.00003522    0.00005888    0.00000592
     atom    2 type  1   force =    -0.00003123   -0.00000778   -0.00008679
     atom    3 type  1   force =    -0.00001465   -0.00001580   -0.00007756
     atom    4 type  1   force =    -0.00001035    0.00002463   -0.00013448
     atom    5 type  1   force =     0.00003999   -0.00003554   -0.00008630
     atom    6 type  1   force =     0.00000406   -0.00002337   -0.00000086
     atom    7 type  1   force =     0.00005223    0.00000872    0.00004117
     atom    8 type  1   force =    -0.00004526   -0.00000953   -0.00006057
     atom    9 type  1   force =    -0.00000625   -0.00000014   -0.00005841
     atom   10 type  1   force =    -0.00001364    0.00003061   -0.00013765
     atom   11 type  1   force =     0.00001241    0.00004127   -0.00009236
     atom   12 type  1   force =    -0.00001058   -0.00005524   -0.00004596
     atom   13 type  1   force =     0.00005748    0.00001077   -0.00006444
     atom   14 type  1   force =    -0.00002906   -0.00004749    0.00002708
     atom   15 type  1   force =    -0.00004482   -0.00003213   -0.00004377
     atom   16 type  1   force =     0.00000780    0.00005332   -0.00006083
     atom   17 type  1   force =     0.00003044    0.00002957   -0.00006014
     atom   18 type  1   force =    -0.00004375    0.00003844   -0.00005260
     atom   19 type  1   force =    -0.00001263   -0.00000088   -0.00013976
     atom   20 type  1   force =    -0.00003339    0.00001271   -0.00005529
     atom   21 type  1   force =     0.00001939    0.00002814   -0.00008158
     atom   22 type  1   force =     0.00003794    0.00005243   -0.00002647
     atom   23 type  1   force =    -0.00003912    0.00003768    0.00002785
     atom   24 type  1   force =     0.00004228    0.00002094   -0.00001980
     atom   25 type  1   force =    -0.00004637    0.00002751   -0.00005957
     atom   26 type  1   force =    -0.00000824    0.00001701   -0.00005733
     atom   27 type  1   force =     0.00002002   -0.00003967   -0.00008391
     atom   28 type  1   force =     0.00002317    0.00004501   -0.00008622
     atom   29 type  1   force =    -0.00001875    0.00000304   -0.00006523
     atom   30 type  1   force =     0.00004299    0.00003318    0.00001565
     atom   31 type  1   force =     0.00001323   -0.00003521   -0.00003182
     atom   32 type  1   force =    -0.00000922   -0.00000292   -0.00009031
     atom   33 type  1   force =    -0.00000732    0.00001056    0.00005325
     atom   34 type  1   force =    -0.00003910    0.00003445    0.00000919
     atom   35 type  1   force =    -0.00001688   -0.00000728   -0.00012582
     atom   36 type  1   force =    -0.00005686    0.00003188   -0.00005460
     atom   37 type  1   force =     0.00001066   -0.00001171   -0.00009625
     atom   38 type  1   force =    -0.00005581    0.00004057   -0.00003772
     atom   39 type  1   force =     0.00001624    0.00005682   -0.00004056
     atom   40 type  1   force =    -0.00001467   -0.00002021   -0.00005881
     atom   41 type  1   force =     0.00003678   -0.00002473    0.00001850
     atom   42 type  1   force =    -0.00002194   -0.00004266   -0.00004945
     atom   43 type  1   force =     0.00000918   -0.00004482    0.00002279
     atom   44 type  1   force =     0.00000224    0.00000104   -0.00008780
     atom   45 type  1   force =     0.00002374    0.00001864   -0.00008851
     atom   46 type  1   force =     0.00001872   -0.00000710   -0.00009550
     atom   47 type  1   force =     0.00003755    0.00002110    0.00004262
     atom   48 type  1   force =     0.00000038    0.00005305   -0.00004654
     atom   49 type  1   force =    -0.00001614   -0.00004471   -0.00000799
     atom   50 type  1   force =     0.00001559    0.00004514    0.00001928
     atom   51 type  1   force =    -0.00003330    0.00005108   -0.00007769
     atom   52 type  1   force =    -0.00001776    0.00000391   -0.00008343
     atom   53 type  1   force =    -0.00003414   -0.00000397   -0.00013568
     atom   54 type  1   force =     0.00004727    0.00005113   -0.00000916
     atom   55 type  1   force =    -0.00005555   -0.00000153    0.00002175
     atom   56 type  2   force =     0.00000302    0.00000439    0.00000219

     Total force =     0.003769     Total SCF correction =     0.000611
     SCF correction compared to forces is large: reduce conv_thr to get better values
     Energy error            =      3.1E-05 Ry
     Gradient error          =      9.0E-04 Ry/Bohr

     bfgs converged in  36 scf cycles and  35 bfgs steps
     (criteria: energy <  1.0E-04 Ry, force <  1.0E-03 Ry/Bohr)

     End of BFGS Geometry Optimization

     Final energy             =  -11591.9871995468 Ry

     File ./out/calc.bfgs deleted, as requested
Begin final coordinates

ATOMIC_POSITIONS (angstrom)
Pt              -2.3856565276       -2.5556675872       -4.3682929487
Pt               1.7751216089       -3.8336147226       -1.0049020520
Pt              -0.8212358624       -4.2007483877       -0.3499406032
Pt              -1.1205234754       -0.4830826566       -2.4647173834
Pt              -2.6320305687        1.8479711883       -2.9177920054
Pt              -0.3984753240        1.5093939737       -4.4802326198
Pt              -2.4431360152        0.0217956631       -5.0036161218
Pt              -4.4180765850        0.1996464522        1.7140286018
Pt               0.6699848040       -0.8649829468        1.6259328793
Pt               0.9404531624        1.2817561857       -1.6096589477
Pt               2.5734975261        0.2763034273        0.1682796710
Pt               1.0337633595       -3.6862558267        1.6028538307
Pt              -3.7622761751       -0.7642141596       -2.7896392406
Pt              -2.4337396748       -2.7020453579        4.5290139332
Pt              -3.9910215264       -2.3529606250        2.3592193389
Pt               4.9196388207        0.5528704903       -0.9442037370
Pt               2.5861884418        3.8760165882        0.9173325766
Pt               4.3276709283       -0.5751231717       -3.3000322901
Pt              -1.7000844543        1.0536073119       -0.4014863676
Pt              -4.1807909786        2.7903388320        1.1830592936
Pt              -2.8525656309       -3.2834844500       -1.9386233701
Pt               0.6110805466        4.3471952866        2.6166148357
Pt              -0.0230144514       -1.2890617309       -4.7521275956
Pt               4.5195880331       -1.0082365279        1.3255541315
Pt               3.6537757856        1.9515168693       -2.7982351046
Pt               4.5583182067        3.2577065495       -0.6806989846
Pt              -0.4549455896        3.4589007652       -2.5281344994
Pt               0.4388665913        1.7518397315        1.0246418498
Pt              -1.7696459393        0.0940387147        1.9754045703
Pt               3.8370465147        0.2923718668        3.5728128335
Pt               3.5919396393       -3.4950804129        0.9297975925
Pt              -4.1516099161       -1.6118123803       -0.2630032540
Pt              -1.3731067905       -0.2136543317        4.5463892064
Pt              -3.0343258538        1.8301625224        3.5060663100
Pt              -1.4501150277       -1.5740393361       -0.0119954285
Pt               2.1789458950       -2.1373806413       -3.3435737135
Pt              -4.2581411900        1.0023533108       -0.8381542693
Pt               1.9769702568        0.4010247982       -4.0961482723
Pt               4.3104015878        1.7636484027        1.4574668530
Pt              -3.4456396798       -4.0946584674        0.4626761306
Pt               2.6731292731       -2.0656794631        3.0115287072
Pt              -1.5337696426       -3.4094279382        2.1241343583
Pt               0.1425055121       -2.4731499641        3.8902761119
Pt               2.0813679706        3.7718434379       -1.6692021321
Pt               0.0261703590        4.2187351759        0.0098825863
Pt              -2.4533412224        3.4905454382       -0.7669261958
Pt               1.2526606733       -0.0235157910        4.1166835255
Pt              -1.8186676538        3.5963242475        1.8956033113
Pt               1.6635314069        3.0753602565       -4.1982179923
Pt              -0.3732204856        2.1147329119        3.7263402469
Pt              -0.1933041862       -3.2349180967       -2.7663389082
Pt               3.9421346108       -2.0343208601       -1.1805105952
Pt               1.0514432677       -1.3611605550       -1.1197960284
Pt               2.2190315149        2.3111062036        3.1290256388
Pt              -4.0199000722       -0.5629267318        4.2706916224
H               -3.1002062477       -3.9355739519       -4.6497250964
End final coordinates



     Writing all to output data dir ./out/calc.save/ :
     XML data file, charge density, pseudopotentials, collected wavefunctions
 
     init_run     :     21.88s CPU     23.38s WALL (       1 calls)
     electrons    : 290379.83s CPU 297385.66s WALL (      36 calls)
     update_pot   :    133.02s CPU    157.01s WALL (      35 calls)
     forces       :    372.72s CPU    434.58s WALL (      36 calls)

     Called by init_run:
     wfcinit      :     12.72s CPU     13.41s WALL (       1 calls)
     wfcinit:atom :      0.06s CPU      0.11s WALL (       2 calls)
     wfcinit:wfcr :     12.24s CPU     12.80s WALL (       2 calls)
     potinit      :      4.51s CPU      4.99s WALL (       1 calls)
     hinit0       :      1.19s CPU      1.23s WALL (       1 calls)

     Called by electrons:
     c_bands      : 278159.58s CPU 282865.12s WALL (     975 calls)
     sum_band     :   7063.52s CPU   7964.67s WALL (     975 calls)
     v_of_rho     :   3832.49s CPU   4579.39s WALL (     992 calls)
     v_h          :     47.93s CPU     51.93s WALL (     992 calls)
     v_xc         :   3915.03s CPU   4683.09s WALL (    1028 calls)
     newd         :   1259.02s CPU   1862.41s WALL (     992 calls)
     mix_rho      :    131.03s CPU    139.12s WALL (     975 calls)

     Called by c_bands:
     init_us_2    :    287.71s CPU    290.81s WALL (    3974 calls)
     rcgdiagg     : 268607.30s CPU 272853.68s WALL (    2022 calls)
     wfcrot       :   9316.15s CPU   9768.74s WALL (    1914 calls)

     Called by sum_band:
     sum_band:wei :      1.53s CPU      1.54s WALL (     975 calls)
     sum_band:loo :   5214.40s CPU   5416.60s WALL (     975 calls)
     sum_band:buf :     53.31s CPU     53.85s WALL (    1950 calls)
     sum_band:ini :    140.70s CPU    142.14s WALL (    1950 calls)
     sum_band:cal :    777.12s CPU    781.44s WALL (    1950 calls)
     sum_band:bec :      4.26s CPU      4.29s WALL (    1950 calls)
     addusdens    :   1744.03s CPU   2411.97s WALL (     975 calls)
                                        0.00s GPU  (     975 calls)
     addusd:skk   :     33.99s CPU     99.47s WALL (    1950 calls)
                                        0.00s GPU  (    1950 calls)

     Called by *cgdiagg:
     h_psi        : 124649.20s CPU 128016.38s WALL ( 2612565 calls)
     s_psi        :  84793.85s CPU  85510.39s WALL ( 5223216 calls)

     Called by h_psi:
     h_psi:calbec :  45800.17s CPU  46170.90s WALL ( 2612565 calls)
     vloc_psi     :  35331.17s CPU  37966.59s WALL ( 2612565 calls)
     add_vuspsi   :  43376.95s CPU  43743.49s WALL ( 2612565 calls)
     hs_1psi      : 158894.02s CPU 162220.83s WALL ( 2610651 calls)
     s_1psi       :  86676.59s CPU  87404.51s WALL ( 2610651 calls)

     General routines
     calbec       :  90671.54s CPU  91424.53s WALL ( 5225454 calls)
     fft          :   2271.64s CPU   2610.43s WALL (   69778 calls)
     ffts         :     24.08s CPU     28.37s WALL (    2959 calls)
     fftw         :  21941.23s CPU  24553.98s WALL ( 6752736 calls)
     interpolate  :     76.75s CPU     88.01s WALL (    1984 calls)
 
     Parallel routines
 
     PWSCF        :   3d 8h49m CPU   3d10h49m WALL

 
   This run was terminated on:   7: 9:38  28Jul2025            

=------------------------------------------------------------------------------=
   JOB DONE.
=------------------------------------------------------------------------------=
