
     Program PWSCF v.7.3.1 starts on 14May2025 at 16:29:23 

     This program is part of the open-source Quantum ESPRESSO suite
     for quantum simulation of materials; please cite
         "P. Giannozzi et al., J. Phys.:Condens. Matter 21 395502 (2009);
         "P. Giannozzi et al., J. Phys.:Condens. Matter 29 465901 (2017);
         "P. Giannozzi et al., J. Chem. Phys. 152 154105 (2020);
          URL http://www.quantum-espresso.org", 
     in publications or presentations arising from this work. More details at
     http://www.quantum-espresso.org/quote

     Parallel version (MPI), running on    36 processors

     MPI processes distributed on     1 nodes
     138839 MiB available memory on the printing compute node when the environment starts
 
     Reading input from espresso.pwi
Warning: card   &CELL ignored
Warning: card      CELL_DOFREE = 'IBRAV' ignored
Warning: card / ignored

     Current dimensions of program PWSCF are:
     Max number of different atomic species (ntypx) = 10
     Max number of k-points (npk) =  40000
     Max angular momentum in pseudopotentials (lmaxx) =  4
     Message from routine iosys:
     restart disabled: needed files not found

     IMPORTANT: XC functional enforced from input :
     Exchange-correlation= RVV10
                           (   1   4  13   4  26   0   0)
     Any further DFT definition will be discarded
     Please, verify this is what you really want


     Atomic positions and unit cell read from directory:
     ./out/calc.save/
     Message from routine qexsd_readschema :
     xml data file ./out/calc.save/data-file-schema.xml not found
     Nothing found: using input atomic positions and unit cell


     gamma-point specific algorithms are used
 
     R & G space division:  proc/nbgrp/npool/nimage =      36
     Subspace diagonalization in iterative solution of the eigenvalue problem:
     one sub-group per band group will be used
     scalapack distributed-memory algorithm (size of sub-group:  6*  6 procs)

 
     Parallelization info
     --------------------
     sticks:   dense  smooth     PW     G-vecs:    dense   smooth      PW
     Min        2366    1183    295               520102   183878   22972
     Max        2368    1188    298               520116   183884   22980
     Sum       85225   42641  10669             18723953  6619737  827137
 
     Using Slab Decomposition
 

     Title: 
     calc                                                                       


     bravais-lattice index     =            0
     lattice parameter (alat)  =      47.2432  a.u.
     unit-cell volume          =  105442.7265 (a.u.)^3
     number of atoms/cell      =          117
     number of atomic types    =            2
     number of electrons       =      1857.00
     number of Kohn-Sham states=         1115
     kinetic-energy cutoff     =      60.0000  Ry
     charge density cutoff     =     480.0000  Ry
     scf convergence threshold =      1.0E-06
     mixing beta               =       0.1000
     number of iterations used =            8  local-TF  mixing
     energy convergence thresh.=      1.0E-04
     force convergence thresh. =      1.0E-03
     Exchange-correlation= RVV10
                           (   1   4  13   4  26   0   0)
     nstep                     =        10000


     celldm(1)=  47.243153  celldm(2)=   0.000000  celldm(3)=   0.000000
     celldm(4)=   0.000000  celldm(5)=   0.000000  celldm(6)=   0.000000

     crystal axes: (cart. coord. in units of alat)
               a(1) = (   1.000000   0.000000   0.000000 )  
               a(2) = (   0.000000   1.000000   0.000000 )  
               a(3) = (   0.000000   0.000000   1.000000 )  

     reciprocal axes: (cart. coord. in units 2 pi/alat)
               b(1) = (  1.000000  0.000000  0.000000 )  
               b(2) = (  0.000000  1.000000  0.000000 )  
               b(3) = (  0.000000  0.000000  1.000000 )  


     PseudoPot. # 1 for Pt read from file:
     /home/james/work/espresso/SSSP_1.3.0_PBE_efficiency/pt_pbe_v1.4.uspp.F.UPF
     MD5 check sum: f09d6de1a584b5a045c4fc126da2d0c4
     Pseudo is Ultrasoft + core correction, Zval = 16.0
     Generated by new atomic code, or converted to UPF format
     Using radial grid of  985 points,  6 beta functions with: 
                l(1) =   0
                l(2) =   0
                l(3) =   1
                l(4) =   1
                l(5) =   2
                l(6) =   2
     Q(r) pseudized with  8 coefficients,  rinner =    1.300   1.300   1.300
                                                       1.300   1.300

     PseudoPot. # 2 for H  read from file:
     /home/james/work/espresso/SSSP_1.3.0_PBE_efficiency/H.pbe-rrkjus_psl.1.0.0.UPF
     MD5 check sum: f52b6d4d1c606e5624b1dc7b2218f220
     Pseudo is Ultrasoft, Zval =  1.0
     Generated using "atomic" code by A. Dal Corso  v.5.1
     Using radial grid of  929 points,  2 beta functions with: 
                l(1) =   0
                l(2) =   0
     Q(r) pseudized with 0 coefficients 


     atomic species   valence    mass     pseudopotential
     Pt               16.00   195.08400     Pt( 1.00)
     H                 1.00     1.00800     H ( 1.00)

     Starting magnetic structure 
     atomic species   magnetization
     Pt              0.010
     H               0.020

     No symmetry found


                                    s                        frac. trans.

      isym =  1     identity                                     

 cryst.   s( 1) = (     1          0          0      )
                  (     0          1          0      )
                  (     0          0          1      )

 cart.    s( 1) = (  1.0000000  0.0000000  0.0000000 )
                  (  0.0000000  1.0000000  0.0000000 )
                  (  0.0000000  0.0000000  1.0000000 )


   Cartesian axes

     site n.     atom                  positions (alat units)
         1        Pt     tau(   1) = (  -0.2317675  -0.1538076   0.0000000  )
         2        Pt     tau(   2) = (  -0.1538076  -0.2317675   0.0000000  )
         3        Pt     tau(   3) = (  -0.1617552  -0.1617552  -0.0847262  )
         4        Pt     tau(   4) = (  -0.1617552  -0.1617552   0.0847262  )
         5        Pt     tau(   5) = (  -0.2317675   0.0000000  -0.1538076  )
         6        Pt     tau(   6) = (  -0.1617552  -0.0847262  -0.1617552  )
         7        Pt     tau(   7) = (  -0.1538076   0.0000000  -0.2317675  )
         8        Pt     tau(   8) = (  -0.2338884  -0.0780549  -0.0780549  )
         9        Pt     tau(   9) = (  -0.2370085   0.0000000   0.0000000  )
        10        Pt     tau(  10) = (  -0.1554443  -0.0788784   0.0000000  )
        11        Pt     tau(  11) = (  -0.1554443   0.0000000  -0.0788784  )
        12        Pt     tau(  12) = (  -0.2338884  -0.0780549   0.0780549  )
        13        Pt     tau(  13) = (  -0.2317675   0.0000000   0.1538076  )
        14        Pt     tau(  14) = (  -0.1617552  -0.0847262   0.1617552  )
        15        Pt     tau(  15) = (  -0.1554443   0.0000000   0.0788784  )
        16        Pt     tau(  16) = (  -0.1538076   0.0000000   0.2317675  )
        17        Pt     tau(  17) = (  -0.1617552   0.0847262  -0.1617552  )
        18        Pt     tau(  18) = (  -0.2338884   0.0780549  -0.0780549  )
        19        Pt     tau(  19) = (  -0.2317675   0.1538076   0.0000000  )
        20        Pt     tau(  20) = (  -0.1554443   0.0788784   0.0000000  )
        21        Pt     tau(  21) = (  -0.1617552   0.1617552  -0.0847262  )
        22        Pt     tau(  22) = (  -0.2338884   0.0780549   0.0780549  )
        23        Pt     tau(  23) = (  -0.1617552   0.0847262   0.1617552  )
        24        Pt     tau(  24) = (  -0.1617552   0.1617552   0.0847262  )
        25        Pt     tau(  25) = (  -0.1538076   0.2317675   0.0000000  )
        26        Pt     tau(  26) = (  -0.0847262  -0.1617552  -0.1617552  )
        27        Pt     tau(  27) = (   0.0000000  -0.2317675  -0.1538076  )
        28        Pt     tau(  28) = (   0.0000000  -0.1538076  -0.2317675  )
        29        Pt     tau(  29) = (  -0.0780549  -0.2338884  -0.0780549  )
        30        Pt     tau(  30) = (  -0.0788784  -0.1554443   0.0000000  )
        31        Pt     tau(  31) = (   0.0000000  -0.2370085   0.0000000  )
        32        Pt     tau(  32) = (   0.0000000  -0.1554443  -0.0788784  )
        33        Pt     tau(  33) = (  -0.0780549  -0.2338884   0.0780549  )
        34        Pt     tau(  34) = (  -0.0847262  -0.1617552   0.1617552  )
        35        Pt     tau(  35) = (   0.0000000  -0.2317675   0.1538076  )
        36        Pt     tau(  36) = (   0.0000000  -0.1554443   0.0788784  )
        37        Pt     tau(  37) = (   0.0000000  -0.1538076   0.2317675  )
        38        Pt     tau(  38) = (  -0.0780549  -0.0780549  -0.2338884  )
        39        Pt     tau(  39) = (  -0.0788784   0.0000000  -0.1554443  )
        40        Pt     tau(  40) = (   0.0000000  -0.0788784  -0.1554443  )
        41        Pt     tau(  41) = (   0.0000000   0.0000000  -0.2370085  )
        42        Pt     tau(  42) = (  -0.0808740  -0.0808740  -0.0808740  )
        43        Pt     tau(  43) = (  -0.0786873   0.0000000   0.0000000  )
        44        Pt     tau(  44) = (   0.0000000  -0.0786873   0.0000000  )
        45        Pt     tau(  45) = (   0.0000000   0.0000000  -0.0786873  )
        46        Pt     tau(  46) = (  -0.0808740  -0.0808740   0.0808740  )
        47        Pt     tau(  47) = (  -0.0788784   0.0000000   0.1554443  )
        48        Pt     tau(  48) = (   0.0000000  -0.0788784   0.1554443  )
        49        Pt     tau(  49) = (   0.0000000   0.0000000   0.0786873  )
        50        Pt     tau(  50) = (  -0.0780549  -0.0780549   0.2338884  )
        51        Pt     tau(  51) = (   0.0000000   0.0000000   0.2370085  )
        52        Pt     tau(  52) = (  -0.0780549   0.0780549  -0.2338884  )
        53        Pt     tau(  53) = (  -0.0847262   0.1617552  -0.1617552  )
        54        Pt     tau(  54) = (   0.0000000   0.0788784  -0.1554443  )
        55        Pt     tau(  55) = (   0.0000000   0.1538076  -0.2317675  )
        56        Pt     tau(  56) = (  -0.0808740   0.0808740  -0.0808740  )
        57        Pt     tau(  57) = (  -0.0788784   0.1554443   0.0000000  )
        58        Pt     tau(  58) = (   0.0000000   0.0786873   0.0000000  )
        59        Pt     tau(  59) = (   0.0000000   0.1554443  -0.0788784  )
        60        Pt     tau(  60) = (  -0.0808740   0.0808740   0.0808740  )
        61        Pt     tau(  61) = (  -0.0847262   0.1617552   0.1617552  )
        62        Pt     tau(  62) = (   0.0000000   0.0788784   0.1554443  )
        63        Pt     tau(  63) = (   0.0000000   0.1554443   0.0788784  )
        64        Pt     tau(  64) = (  -0.0780549   0.0780549   0.2338884  )
        65        Pt     tau(  65) = (   0.0000000   0.1538076   0.2317675  )
        66        Pt     tau(  66) = (   0.0000000   0.2317675  -0.1538076  )
        67        Pt     tau(  67) = (  -0.0780549   0.2338884  -0.0780549  )
        68        Pt     tau(  68) = (   0.0000000   0.2370085   0.0000000  )
        69        Pt     tau(  69) = (  -0.0780549   0.2338884   0.0780549  )
        70        Pt     tau(  70) = (   0.0000000   0.2317675   0.1538076  )
        71        Pt     tau(  71) = (   0.0847262  -0.1617552  -0.1617552  )
        72        Pt     tau(  72) = (   0.0780549  -0.2338884  -0.0780549  )
        73        Pt     tau(  73) = (   0.0788784  -0.1554443   0.0000000  )
        74        Pt     tau(  74) = (   0.1538076  -0.2317675   0.0000000  )
        75        Pt     tau(  75) = (   0.1617552  -0.1617552  -0.0847262  )
        76        Pt     tau(  76) = (   0.0780549  -0.2338884   0.0780549  )
        77        Pt     tau(  77) = (   0.0847262  -0.1617552   0.1617552  )
        78        Pt     tau(  78) = (   0.1617552  -0.1617552   0.0847262  )
        79        Pt     tau(  79) = (   0.0780549  -0.0780549  -0.2338884  )
        80        Pt     tau(  80) = (   0.0788784   0.0000000  -0.1554443  )
        81        Pt     tau(  81) = (   0.1617552  -0.0847262  -0.1617552  )
        82        Pt     tau(  82) = (   0.1538076   0.0000000  -0.2317675  )
        83        Pt     tau(  83) = (   0.0808740  -0.0808740  -0.0808740  )
        84        Pt     tau(  84) = (   0.0786873   0.0000000   0.0000000  )
        85        Pt     tau(  85) = (   0.1554443  -0.0788784   0.0000000  )
        86        Pt     tau(  86) = (   0.1554443   0.0000000  -0.0788784  )
        87        Pt     tau(  87) = (   0.0808740  -0.0808740   0.0808740  )
        88        Pt     tau(  88) = (   0.0788784   0.0000000   0.1554443  )
        89        Pt     tau(  89) = (   0.1617552  -0.0847262   0.1617552  )
        90        Pt     tau(  90) = (   0.1554443   0.0000000   0.0788784  )
        91        Pt     tau(  91) = (   0.0780549  -0.0780549   0.2338884  )
        92        Pt     tau(  92) = (   0.1538076   0.0000000   0.2317675  )
        93        Pt     tau(  93) = (   0.0780549   0.0780549  -0.2338884  )
        94        Pt     tau(  94) = (   0.0847262   0.1617552  -0.1617552  )
        95        Pt     tau(  95) = (   0.1617552   0.0847262  -0.1617552  )
        96        Pt     tau(  96) = (   0.0808740   0.0808740  -0.0808740  )
        97        Pt     tau(  97) = (   0.0788784   0.1554443   0.0000000  )
        98        Pt     tau(  98) = (   0.1554443   0.0788784   0.0000000  )
        99        Pt     tau(  99) = (   0.1617552   0.1617552  -0.0847262  )
       100        Pt     tau( 100) = (   0.0808740   0.0808740   0.0808740  )
       101        Pt     tau( 101) = (   0.0847262   0.1617552   0.1617552  )
       102        Pt     tau( 102) = (   0.1617552   0.0847262   0.1617552  )
       103        Pt     tau( 103) = (   0.1617552   0.1617552   0.0847262  )
       104        Pt     tau( 104) = (   0.0780549   0.0780549   0.2338884  )
       105        Pt     tau( 105) = (   0.0780549   0.2338884  -0.0780549  )
       106        Pt     tau( 106) = (   0.1538076   0.2317675   0.0000000  )
       107        Pt     tau( 107) = (   0.0780549   0.2338884   0.0780549  )
       108        Pt     tau( 108) = (   0.2317675  -0.1538076   0.0000000  )
       109        Pt     tau( 109) = (   0.2317675   0.0000000  -0.1538076  )
       110        Pt     tau( 110) = (   0.2338884  -0.0780549  -0.0780549  )
       111        Pt     tau( 111) = (   0.2370085   0.0000000   0.0000000  )
       112        Pt     tau( 112) = (   0.2338884  -0.0780549   0.0780549  )
       113        Pt     tau( 113) = (   0.2317675   0.0000000   0.1538076  )
       114        Pt     tau( 114) = (   0.2338884   0.0780549  -0.0780549  )
       115        Pt     tau( 115) = (   0.2317675   0.1538076   0.0000000  )
       116        Pt     tau( 116) = (   0.2338884   0.0780549   0.0780549  )
       117        H      tau( 117) = (  -0.2405846  -0.1941552  -0.0612435  )

   Crystallographic axes

     site n.     atom                  positions (cryst. coord.)
         1        Pt     tau(   1) = ( -0.2317675 -0.1538076  0.0000000  )
         2        Pt     tau(   2) = ( -0.1538076 -0.2317675  0.0000000  )
         3        Pt     tau(   3) = ( -0.1617552 -0.1617552 -0.0847262  )
         4        Pt     tau(   4) = ( -0.1617552 -0.1617552  0.0847262  )
         5        Pt     tau(   5) = ( -0.2317675  0.0000000 -0.1538076  )
         6        Pt     tau(   6) = ( -0.1617552 -0.0847262 -0.1617552  )
         7        Pt     tau(   7) = ( -0.1538076  0.0000000 -0.2317675  )
         8        Pt     tau(   8) = ( -0.2338884 -0.0780549 -0.0780549  )
         9        Pt     tau(   9) = ( -0.2370085  0.0000000  0.0000000  )
        10        Pt     tau(  10) = ( -0.1554443 -0.0788784  0.0000000  )
        11        Pt     tau(  11) = ( -0.1554443  0.0000000 -0.0788784  )
        12        Pt     tau(  12) = ( -0.2338884 -0.0780549  0.0780549  )
        13        Pt     tau(  13) = ( -0.2317675  0.0000000  0.1538076  )
        14        Pt     tau(  14) = ( -0.1617552 -0.0847262  0.1617552  )
        15        Pt     tau(  15) = ( -0.1554443  0.0000000  0.0788784  )
        16        Pt     tau(  16) = ( -0.1538076  0.0000000  0.2317675  )
        17        Pt     tau(  17) = ( -0.1617552  0.0847262 -0.1617552  )
        18        Pt     tau(  18) = ( -0.2338884  0.0780549 -0.0780549  )
        19        Pt     tau(  19) = ( -0.2317675  0.1538076  0.0000000  )
        20        Pt     tau(  20) = ( -0.1554443  0.0788784  0.0000000  )
        21        Pt     tau(  21) = ( -0.1617552  0.1617552 -0.0847262  )
        22        Pt     tau(  22) = ( -0.2338884  0.0780549  0.0780549  )
        23        Pt     tau(  23) = ( -0.1617552  0.0847262  0.1617552  )
        24        Pt     tau(  24) = ( -0.1617552  0.1617552  0.0847262  )
        25        Pt     tau(  25) = ( -0.1538076  0.2317675  0.0000000  )
        26        Pt     tau(  26) = ( -0.0847262 -0.1617552 -0.1617552  )
        27        Pt     tau(  27) = (  0.0000000 -0.2317675 -0.1538076  )
        28        Pt     tau(  28) = (  0.0000000 -0.1538076 -0.2317675  )
        29        Pt     tau(  29) = ( -0.0780549 -0.2338884 -0.0780549  )
        30        Pt     tau(  30) = ( -0.0788784 -0.1554443  0.0000000  )
        31        Pt     tau(  31) = (  0.0000000 -0.2370085  0.0000000  )
        32        Pt     tau(  32) = (  0.0000000 -0.1554443 -0.0788784  )
        33        Pt     tau(  33) = ( -0.0780549 -0.2338884  0.0780549  )
        34        Pt     tau(  34) = ( -0.0847262 -0.1617552  0.1617552  )
        35        Pt     tau(  35) = (  0.0000000 -0.2317675  0.1538076  )
        36        Pt     tau(  36) = (  0.0000000 -0.1554443  0.0788784  )
        37        Pt     tau(  37) = (  0.0000000 -0.1538076  0.2317675  )
        38        Pt     tau(  38) = ( -0.0780549 -0.0780549 -0.2338884  )
        39        Pt     tau(  39) = ( -0.0788784  0.0000000 -0.1554443  )
        40        Pt     tau(  40) = (  0.0000000 -0.0788784 -0.1554443  )
        41        Pt     tau(  41) = (  0.0000000  0.0000000 -0.2370085  )
        42        Pt     tau(  42) = ( -0.0808740 -0.0808740 -0.0808740  )
        43        Pt     tau(  43) = ( -0.0786873  0.0000000  0.0000000  )
        44        Pt     tau(  44) = (  0.0000000 -0.0786873  0.0000000  )
        45        Pt     tau(  45) = (  0.0000000  0.0000000 -0.0786873  )
        46        Pt     tau(  46) = ( -0.0808740 -0.0808740  0.0808740  )
        47        Pt     tau(  47) = ( -0.0788784  0.0000000  0.1554443  )
        48        Pt     tau(  48) = (  0.0000000 -0.0788784  0.1554443  )
        49        Pt     tau(  49) = (  0.0000000  0.0000000  0.0786873  )
        50        Pt     tau(  50) = ( -0.0780549 -0.0780549  0.2338884  )
        51        Pt     tau(  51) = (  0.0000000  0.0000000  0.2370085  )
        52        Pt     tau(  52) = ( -0.0780549  0.0780549 -0.2338884  )
        53        Pt     tau(  53) = ( -0.0847262  0.1617552 -0.1617552  )
        54        Pt     tau(  54) = (  0.0000000  0.0788784 -0.1554443  )
        55        Pt     tau(  55) = (  0.0000000  0.1538076 -0.2317675  )
        56        Pt     tau(  56) = ( -0.0808740  0.0808740 -0.0808740  )
        57        Pt     tau(  57) = ( -0.0788784  0.1554443  0.0000000  )
        58        Pt     tau(  58) = (  0.0000000  0.0786873  0.0000000  )
        59        Pt     tau(  59) = (  0.0000000  0.1554443 -0.0788784  )
        60        Pt     tau(  60) = ( -0.0808740  0.0808740  0.0808740  )
        61        Pt     tau(  61) = ( -0.0847262  0.1617552  0.1617552  )
        62        Pt     tau(  62) = (  0.0000000  0.0788784  0.1554443  )
        63        Pt     tau(  63) = (  0.0000000  0.1554443  0.0788784  )
        64        Pt     tau(  64) = ( -0.0780549  0.0780549  0.2338884  )
        65        Pt     tau(  65) = (  0.0000000  0.1538076  0.2317675  )
        66        Pt     tau(  66) = (  0.0000000  0.2317675 -0.1538076  )
        67        Pt     tau(  67) = ( -0.0780549  0.2338884 -0.0780549  )
        68        Pt     tau(  68) = (  0.0000000  0.2370085  0.0000000  )
        69        Pt     tau(  69) = ( -0.0780549  0.2338884  0.0780549  )
        70        Pt     tau(  70) = (  0.0000000  0.2317675  0.1538076  )
        71        Pt     tau(  71) = (  0.0847262 -0.1617552 -0.1617552  )
        72        Pt     tau(  72) = (  0.0780549 -0.2338884 -0.0780549  )
        73        Pt     tau(  73) = (  0.0788784 -0.1554443  0.0000000  )
        74        Pt     tau(  74) = (  0.1538076 -0.2317675  0.0000000  )
        75        Pt     tau(  75) = (  0.1617552 -0.1617552 -0.0847262  )
        76        Pt     tau(  76) = (  0.0780549 -0.2338884  0.0780549  )
        77        Pt     tau(  77) = (  0.0847262 -0.1617552  0.1617552  )
        78        Pt     tau(  78) = (  0.1617552 -0.1617552  0.0847262  )
        79        Pt     tau(  79) = (  0.0780549 -0.0780549 -0.2338884  )
        80        Pt     tau(  80) = (  0.0788784  0.0000000 -0.1554443  )
        81        Pt     tau(  81) = (  0.1617552 -0.0847262 -0.1617552  )
        82        Pt     tau(  82) = (  0.1538076  0.0000000 -0.2317675  )
        83        Pt     tau(  83) = (  0.0808740 -0.0808740 -0.0808740  )
        84        Pt     tau(  84) = (  0.0786873  0.0000000  0.0000000  )
        85        Pt     tau(  85) = (  0.1554443 -0.0788784  0.0000000  )
        86        Pt     tau(  86) = (  0.1554443  0.0000000 -0.0788784  )
        87        Pt     tau(  87) = (  0.0808740 -0.0808740  0.0808740  )
        88        Pt     tau(  88) = (  0.0788784  0.0000000  0.1554443  )
        89        Pt     tau(  89) = (  0.1617552 -0.0847262  0.1617552  )
        90        Pt     tau(  90) = (  0.1554443  0.0000000  0.0788784  )
        91        Pt     tau(  91) = (  0.0780549 -0.0780549  0.2338884  )
        92        Pt     tau(  92) = (  0.1538076  0.0000000  0.2317675  )
        93        Pt     tau(  93) = (  0.0780549  0.0780549 -0.2338884  )
        94        Pt     tau(  94) = (  0.0847262  0.1617552 -0.1617552  )
        95        Pt     tau(  95) = (  0.1617552  0.0847262 -0.1617552  )
        96        Pt     tau(  96) = (  0.0808740  0.0808740 -0.0808740  )
        97        Pt     tau(  97) = (  0.0788784  0.1554443  0.0000000  )
        98        Pt     tau(  98) = (  0.1554443  0.0788784  0.0000000  )
        99        Pt     tau(  99) = (  0.1617552  0.1617552 -0.0847262  )
       100        Pt     tau( 100) = (  0.0808740  0.0808740  0.0808740  )
       101        Pt     tau( 101) = (  0.0847262  0.1617552  0.1617552  )
       102        Pt     tau( 102) = (  0.1617552  0.0847262  0.1617552  )
       103        Pt     tau( 103) = (  0.1617552  0.1617552  0.0847262  )
       104        Pt     tau( 104) = (  0.0780549  0.0780549  0.2338884  )
       105        Pt     tau( 105) = (  0.0780549  0.2338884 -0.0780549  )
       106        Pt     tau( 106) = (  0.1538076  0.2317675  0.0000000  )
       107        Pt     tau( 107) = (  0.0780549  0.2338884  0.0780549  )
       108        Pt     tau( 108) = (  0.2317675 -0.1538076  0.0000000  )
       109        Pt     tau( 109) = (  0.2317675  0.0000000 -0.1538076  )
       110        Pt     tau( 110) = (  0.2338884 -0.0780549 -0.0780549  )
       111        Pt     tau( 111) = (  0.2370085  0.0000000  0.0000000  )
       112        Pt     tau( 112) = (  0.2338884 -0.0780549  0.0780549  )
       113        Pt     tau( 113) = (  0.2317675  0.0000000  0.1538076  )
       114        Pt     tau( 114) = (  0.2338884  0.0780549 -0.0780549  )
       115        Pt     tau( 115) = (  0.2317675  0.1538076  0.0000000  )
       116        Pt     tau( 116) = (  0.2338884  0.0780549  0.0780549  )
       117        H      tau( 117) = ( -0.2405846 -0.1941552 -0.0612435  )

     number of k points=     1  Gaussian smearing, width (Ry)=  0.0100
                       cart. coord. in units 2pi/alat
        k(    1) = (   0.0000000   0.0000000   0.0000000), wk =   1.0000000

                       cryst. coord.
        k(    1) = (   0.0000000   0.0000000   0.0000000), wk =   1.0000000

     Dense  grid:  9361977 G-vectors     FFT dimensions: ( 360, 360, 360)

     Smooth grid:  3309869 G-vectors     FFT dimensions: ( 240, 240, 240)

     Dynamical RAM for                 wfc:     195.54 MB

     Dynamical RAM for     wfc (w. buffer):     586.61 MB

     Dynamical RAM for           str. fact:       7.94 MB

     Dynamical RAM for           local pot:       0.00 MB

     Dynamical RAM for          nlocal pot:     366.52 MB

     Dynamical RAM for                qrad:       3.52 MB

     Dynamical RAM for          rho,v,vnew:      83.14 MB

     Dynamical RAM for               rhoin:      27.71 MB

     Dynamical RAM for            rho*nmix:     126.98 MB

     Dynamical RAM for           G-vectors:      15.58 MB

     Dynamical RAM for          h,s,v(r/c):       0.78 MB

     Dynamical RAM for          <psi|beta>:      17.78 MB

     Dynamical RAM for      wfcinit/wfcrot:     419.54 MB

     Dynamical RAM for           addusdens:    1202.36 MB

     Dynamical RAM for          addusforce:    2115.94 MB

     Estimated static dynamical RAM per process >       1.14 GB

     Estimated max dynamical RAM per process >       3.33 GB

     Estimated total dynamical RAM >     119.71 GB
     Generating pointlists ...
     new r_m :   0.0305 (alat units)  1.4395 (a.u.) for type    1
     new r_m :   0.0305 (alat units)  1.4395 (a.u.) for type    2
     Cannot read rho : file not found

     Initial potential from superposition of free atoms

     starting charge    1798.9987, renormalised to    1857.0000

     negative rho (up, down):  1.111E+01 1.089E+01


---------------------------------------------------------------------------------
Carrying out rVV10 run using the following parameters:
Nqs =      20    Nr_points =    1024   r_max =   100.000
b_value =  6.30000    beta =  0.00901
     q_mesh =  0.00010000  0.00030000  0.00058939  0.00100810
               0.00161396  0.00249058  0.00375900  0.00559430
               0.00824984  0.01209221  0.01765183  0.02569619
               0.03733578  0.05417739  0.07854596  0.11380545
               0.16482331  0.23864234  0.34545298  0.50000000

Gradients computed in Reciprocal space

---------------------------------------------------------------------------------




     ----------------------------------------------------------------

     Non-local correlation energy =             19.952097123984728

     ----------------------------------------------------------------

     Message from routine qexsd_readschema :
     xml data file ./out/calc.save/data-file-schema.xml not found
     Cannot read wfcs: file not found
     Starting wfcs are 1393 randomized atomic wfcs

     total cpu time spent up to now is      101.7 secs

     Self-consistent Calculation

     iteration #  1     ecut=    60.00 Ry     beta= 0.10
     CG style diagonalization

---- Real-time Memory Report at c_bands before calling an iterative solver
             0 MiB given to the printing process from OS
             0 MiB allocation reported by mallinfo(arena+hblkhd)
         93279 MiB available memory on the node where the printing process lives
------------------
     c_bands:  4 eigenvalues not converged
     c_bands:  2 eigenvalues not converged
     ethr =  1.00E-05,  avg # of iterations = 31.2

     negative rho (up, down):  1.131E+01 1.111E+01


     ----------------------------------------------------------------

     Non-local correlation energy =             19.840735076842861

     ----------------------------------------------------------------


     total cpu time spent up to now is    24631.0 secs

     total energy              =  -24490.52963338 Ry
     estimated scf accuracy    <     662.58794386 Ry

     total magnetization       =     8.01 Bohr mag/cell
     absolute magnetization    =     8.39 Bohr mag/cell

     iteration #  2     ecut=    60.00 Ry     beta= 0.10
     CG style diagonalization

---- Real-time Memory Report at c_bands before calling an iterative solver
             0 MiB given to the printing process from OS
             0 MiB allocation reported by mallinfo(arena+hblkhd)
         90439 MiB available memory on the node where the printing process lives
------------------
     ethr =  1.00E-02,  avg # of iterations =  3.0

     negative rho (up, down):  1.344E+01 1.341E+01


     ----------------------------------------------------------------

     Non-local correlation energy =             18.900705275179384

     ----------------------------------------------------------------


     total cpu time spent up to now is    26538.3 secs

     total energy              =  -24406.36234890 Ry
     estimated scf accuracy    <     551.97378370 Ry

     total magnetization       =     8.29 Bohr mag/cell
     absolute magnetization    =     8.68 Bohr mag/cell

     iteration #  3     ecut=    60.00 Ry     beta= 0.10
     CG style diagonalization

---- Real-time Memory Report at c_bands before calling an iterative solver
             0 MiB given to the printing process from OS
             0 MiB allocation reported by mallinfo(arena+hblkhd)
         90145 MiB available memory on the node where the printing process lives
------------------
     ethr =  1.00E-02,  avg # of iterations =  3.3

     negative rho (up, down):  1.276E+01 1.272E+01


     ----------------------------------------------------------------

     Non-local correlation energy =             18.942440844250594

     ----------------------------------------------------------------


     total cpu time spent up to now is    28714.5 secs

     total energy              =  -24447.44978041 Ry
     estimated scf accuracy    <      19.68165667 Ry

     total magnetization       =     7.63 Bohr mag/cell
     absolute magnetization    =     8.14 Bohr mag/cell

     iteration #  4     ecut=    60.00 Ry     beta= 0.10
     CG style diagonalization

---- Real-time Memory Report at c_bands before calling an iterative solver
             0 MiB given to the printing process from OS
             0 MiB allocation reported by mallinfo(arena+hblkhd)
         89863 MiB available memory on the node where the printing process lives
------------------
     ethr =  1.06E-03,  avg # of iterations =  3.7

     negative rho (up, down):  1.237E+01 1.231E+01


     ----------------------------------------------------------------

     Non-local correlation energy =             18.976084636833168

     ----------------------------------------------------------------


     total cpu time spent up to now is    31281.7 secs

     total energy              =  -24450.65464405 Ry
     estimated scf accuracy    <      24.10899321 Ry

     total magnetization       =     7.88 Bohr mag/cell
     absolute magnetization    =     8.17 Bohr mag/cell

     iteration #  5     ecut=    60.00 Ry     beta= 0.10
     CG style diagonalization

---- Real-time Memory Report at c_bands before calling an iterative solver
             0 MiB given to the printing process from OS
             0 MiB allocation reported by mallinfo(arena+hblkhd)
         89599 MiB available memory on the node where the printing process lives
------------------
     ethr =  1.06E-03,  avg # of iterations =  3.0

     negative rho (up, down):  1.176E+01 1.169E+01


     ----------------------------------------------------------------

     Non-local correlation energy =             18.991638520078332

     ----------------------------------------------------------------


     total cpu time spent up to now is    33187.8 secs

     total energy              =  -24450.67264285 Ry
     estimated scf accuracy    <      19.48539237 Ry

     total magnetization       =     7.41 Bohr mag/cell
     absolute magnetization    =     7.73 Bohr mag/cell

     iteration #  6     ecut=    60.00 Ry     beta= 0.10
     CG style diagonalization

---- Real-time Memory Report at c_bands before calling an iterative solver
             0 MiB given to the printing process from OS
             0 MiB allocation reported by mallinfo(arena+hblkhd)
         89333 MiB available memory on the node where the printing process lives
------------------
     ethr =  1.05E-03,  avg # of iterations =  3.0

     negative rho (up, down):  1.083E+01 1.077E+01


     ----------------------------------------------------------------

     Non-local correlation energy =             18.870957383354774

     ----------------------------------------------------------------


     total cpu time spent up to now is    35095.2 secs

     total energy              =  -24448.74254783 Ry
     estimated scf accuracy    <       8.00330583 Ry

     total magnetization       =     6.57 Bohr mag/cell
     absolute magnetization    =     6.91 Bohr mag/cell

     iteration #  7     ecut=    60.00 Ry     beta= 0.10
     CG style diagonalization

---- Real-time Memory Report at c_bands before calling an iterative solver
             0 MiB given to the printing process from OS
             0 MiB allocation reported by mallinfo(arena+hblkhd)
         89106 MiB available memory on the node where the printing process lives
------------------
     c_bands:  1 eigenvalues not converged
     ethr =  4.31E-04,  avg # of iterations =  3.2

     negative rho (up, down):  1.071E+01 1.066E+01


     ----------------------------------------------------------------

     Non-local correlation energy =             18.758136839860668

     ----------------------------------------------------------------


     total cpu time spent up to now is    37160.8 secs

     total energy              =  -24448.41951973 Ry
     estimated scf accuracy    <       6.87195128 Ry

     total magnetization       =     4.97 Bohr mag/cell
     absolute magnetization    =     5.41 Bohr mag/cell

     iteration #  8     ecut=    60.00 Ry     beta= 0.10
     CG style diagonalization

---- Real-time Memory Report at c_bands before calling an iterative solver
             0 MiB given to the printing process from OS
             0 MiB allocation reported by mallinfo(arena+hblkhd)
         88864 MiB available memory on the node where the printing process lives
------------------
     c_bands:  1 eigenvalues not converged
     ethr =  3.70E-04,  avg # of iterations =  3.1

     negative rho (up, down):  1.065E+01 1.060E+01


     ----------------------------------------------------------------

     Non-local correlation energy =             18.751214778593884

     ----------------------------------------------------------------


     total cpu time spent up to now is    39137.2 secs

     total energy              =  -24448.88976125 Ry
     estimated scf accuracy    <       0.97326616 Ry

     total magnetization       =     4.46 Bohr mag/cell
     absolute magnetization    =     4.94 Bohr mag/cell

     iteration #  9     ecut=    60.00 Ry     beta= 0.10
     CG style diagonalization

---- Real-time Memory Report at c_bands before calling an iterative solver
             0 MiB given to the printing process from OS
             0 MiB allocation reported by mallinfo(arena+hblkhd)
         88649 MiB available memory on the node where the printing process lives
------------------
     c_bands:  1 eigenvalues not converged
     ethr =  5.24E-05,  avg # of iterations =  7.7

     negative rho (up, down):  1.064E+01 1.059E+01


     ----------------------------------------------------------------

     Non-local correlation energy =             18.807076078843593

     ----------------------------------------------------------------


     total cpu time spent up to now is    44482.5 secs

     total energy              =  -24448.96863821 Ry
     estimated scf accuracy    <       0.44001520 Ry

     total magnetization       =     4.45 Bohr mag/cell
     absolute magnetization    =     4.85 Bohr mag/cell

     iteration # 10     ecut=    60.00 Ry     beta= 0.10
     CG style diagonalization

---- Real-time Memory Report at c_bands before calling an iterative solver
             0 MiB given to the printing process from OS
             0 MiB allocation reported by mallinfo(arena+hblkhd)
         88432 MiB available memory on the node where the printing process lives
------------------
     ethr =  2.37E-05,  avg # of iterations =  3.6

     negative rho (up, down):  1.034E+01 1.030E+01


     ----------------------------------------------------------------

     Non-local correlation energy =             18.760150457440616

     ----------------------------------------------------------------


     total cpu time spent up to now is    46931.0 secs

     total energy              =  -24448.95481196 Ry
     estimated scf accuracy    <       0.31633082 Ry

     total magnetization       =     4.82 Bohr mag/cell
     absolute magnetization    =     5.15 Bohr mag/cell

     iteration # 11     ecut=    60.00 Ry     beta= 0.10
     CG style diagonalization

---- Real-time Memory Report at c_bands before calling an iterative solver
             0 MiB given to the printing process from OS
             0 MiB allocation reported by mallinfo(arena+hblkhd)
         88462 MiB available memory on the node where the printing process lives
------------------
     c_bands:  1 eigenvalues not converged
     ethr =  1.70E-05,  avg # of iterations =  6.9

     negative rho (up, down):  1.034E+01 1.030E+01


     ----------------------------------------------------------------

     Non-local correlation energy =             18.760653375361549

     ----------------------------------------------------------------


     total cpu time spent up to now is    51585.2 secs

     total energy              =  -24448.99853968 Ry
     estimated scf accuracy    <       0.68304469 Ry

     total magnetization       =     4.18 Bohr mag/cell
     absolute magnetization    =     4.49 Bohr mag/cell

     iteration # 12     ecut=    60.00 Ry     beta= 0.10
     CG style diagonalization

---- Real-time Memory Report at c_bands before calling an iterative solver
             0 MiB given to the printing process from OS
             0 MiB allocation reported by mallinfo(arena+hblkhd)
         88493 MiB available memory on the node where the printing process lives
------------------
     ethr =  1.70E-05,  avg # of iterations =  3.0

     negative rho (up, down):  1.033E+01 1.029E+01


     ----------------------------------------------------------------

     Non-local correlation energy =             18.773367876027713

     ----------------------------------------------------------------


     total cpu time spent up to now is    53496.2 secs

     total energy              =  -24448.98763040 Ry
     estimated scf accuracy    <       0.29210602 Ry

     total magnetization       =     4.05 Bohr mag/cell
     absolute magnetization    =     4.36 Bohr mag/cell

     iteration # 13     ecut=    60.00 Ry     beta= 0.10
     CG style diagonalization

---- Real-time Memory Report at c_bands before calling an iterative solver
             0 MiB given to the printing process from OS
             0 MiB allocation reported by mallinfo(arena+hblkhd)
         88516 MiB available memory on the node where the printing process lives
------------------
     ethr =  1.57E-05,  avg # of iterations =  3.0

     negative rho (up, down):  1.031E+01 1.027E+01


     ----------------------------------------------------------------

     Non-local correlation energy =             18.778155703377390

     ----------------------------------------------------------------


     total cpu time spent up to now is    55402.6 secs

     total energy              =  -24448.99370543 Ry
     estimated scf accuracy    <       0.02746606 Ry

     total magnetization       =     3.94 Bohr mag/cell
     absolute magnetization    =     4.25 Bohr mag/cell

     iteration # 14     ecut=    60.00 Ry     beta= 0.10
     CG style diagonalization

---- Real-time Memory Report at c_bands before calling an iterative solver
             0 MiB given to the printing process from OS
             0 MiB allocation reported by mallinfo(arena+hblkhd)
         88530 MiB available memory on the node where the printing process lives
------------------
     c_bands:  5 eigenvalues not converged
     c_bands:  5 eigenvalues not converged
     ethr =  1.48E-06,  avg # of iterations =  3.4

     negative rho (up, down):  1.028E+01 1.025E+01


     ----------------------------------------------------------------

     Non-local correlation energy =             18.767325046231090

     ----------------------------------------------------------------


     total cpu time spent up to now is    57665.7 secs

     total energy              =  -24448.98728926 Ry
     estimated scf accuracy    <       0.02269057 Ry

     total magnetization       =     3.60 Bohr mag/cell
     absolute magnetization    =     3.88 Bohr mag/cell

     iteration # 15     ecut=    60.00 Ry     beta= 0.10
     CG style diagonalization

---- Real-time Memory Report at c_bands before calling an iterative solver
             0 MiB given to the printing process from OS
             0 MiB allocation reported by mallinfo(arena+hblkhd)
         88532 MiB available memory on the node where the printing process lives
------------------
     ethr =  1.22E-06,  avg # of iterations =  9.6

     negative rho (up, down):  1.027E+01 1.024E+01


     ----------------------------------------------------------------

     Non-local correlation energy =             18.764732030480925

     ----------------------------------------------------------------


     total cpu time spent up to now is    63847.8 secs

     total energy              =  -24448.98994378 Ry
     estimated scf accuracy    <       0.00295823 Ry

     total magnetization       =     3.09 Bohr mag/cell
     absolute magnetization    =     3.34 Bohr mag/cell

     iteration # 16     ecut=    60.00 Ry     beta= 0.10
     CG style diagonalization

---- Real-time Memory Report at c_bands before calling an iterative solver
             0 MiB given to the printing process from OS
             0 MiB allocation reported by mallinfo(arena+hblkhd)
         88592 MiB available memory on the node where the printing process lives
------------------
     ethr =  1.59E-07,  avg # of iterations =  3.2

     negative rho (up, down):  1.028E+01 1.026E+01


     ----------------------------------------------------------------

     Non-local correlation energy =             18.771175652450236

     ----------------------------------------------------------------


     total cpu time spent up to now is    65917.0 secs

     total energy              =  -24448.98780111 Ry
     estimated scf accuracy    <       0.00332410 Ry

     total magnetization       =     2.95 Bohr mag/cell
     absolute magnetization    =     3.19 Bohr mag/cell

     iteration # 17     ecut=    60.00 Ry     beta= 0.10
     CG style diagonalization

---- Real-time Memory Report at c_bands before calling an iterative solver
             0 MiB given to the printing process from OS
             0 MiB allocation reported by mallinfo(arena+hblkhd)
         88595 MiB available memory on the node where the printing process lives
------------------
     c_bands:  5 eigenvalues not converged
     c_bands:  5 eigenvalues not converged
     ethr =  1.59E-07,  avg # of iterations =  3.9

     negative rho (up, down):  1.025E+01 1.023E+01


     ----------------------------------------------------------------

     Non-local correlation energy =             18.767568816715851

     ----------------------------------------------------------------


     total cpu time spent up to now is    68698.5 secs

     total energy              =  -24448.98936530 Ry
     estimated scf accuracy    <       0.00187766 Ry

     total magnetization       =     2.59 Bohr mag/cell
     absolute magnetization    =     2.80 Bohr mag/cell

     iteration # 18     ecut=    60.00 Ry     beta= 0.10
     CG style diagonalization

---- Real-time Memory Report at c_bands before calling an iterative solver
             0 MiB given to the printing process from OS
             0 MiB allocation reported by mallinfo(arena+hblkhd)
         88615 MiB available memory on the node where the printing process lives
------------------
     c_bands:  5 eigenvalues not converged
     c_bands:  5 eigenvalues not converged
     ethr =  1.01E-07,  avg # of iterations =  3.9

     negative rho (up, down):  1.025E+01 1.023E+01


     ----------------------------------------------------------------

     Non-local correlation energy =             18.770137088973264

     ----------------------------------------------------------------


     total cpu time spent up to now is    71441.7 secs

     total energy              =  -24448.98939344 Ry
     estimated scf accuracy    <       0.00092679 Ry

     total magnetization       =     2.34 Bohr mag/cell
     absolute magnetization    =     2.52 Bohr mag/cell

     iteration # 19     ecut=    60.00 Ry     beta= 0.10
     CG style diagonalization

---- Real-time Memory Report at c_bands before calling an iterative solver
             0 MiB given to the printing process from OS
             0 MiB allocation reported by mallinfo(arena+hblkhd)
         88629 MiB available memory on the node where the printing process lives
------------------
     c_bands:  1 eigenvalues not converged
     c_bands:  1 eigenvalues not converged
     ethr =  4.99E-08,  avg # of iterations =  3.4

     negative rho (up, down):  1.024E+01 1.023E+01


     ----------------------------------------------------------------

     Non-local correlation energy =             18.770130584777508

     ----------------------------------------------------------------


     total cpu time spent up to now is    73731.0 secs

     total energy              =  -24448.98954561 Ry
     estimated scf accuracy    <       0.00044256 Ry

     total magnetization       =     2.06 Bohr mag/cell
     absolute magnetization    =     2.21 Bohr mag/cell

     iteration # 20     ecut=    60.00 Ry     beta= 0.10
     CG style diagonalization

---- Real-time Memory Report at c_bands before calling an iterative solver
             0 MiB given to the printing process from OS
             0 MiB allocation reported by mallinfo(arena+hblkhd)
         88625 MiB available memory on the node where the printing process lives
------------------
     c_bands:  1 eigenvalues not converged
     c_bands:  1 eigenvalues not converged
     ethr =  2.38E-08,  avg # of iterations =  3.1

     negative rho (up, down):  1.024E+01 1.022E+01


     ----------------------------------------------------------------

     Non-local correlation energy =             18.769977181372990

     ----------------------------------------------------------------


     total cpu time spent up to now is    75738.1 secs

     total energy              =  -24448.98960127 Ry
     estimated scf accuracy    <       0.00026977 Ry

     total magnetization       =     1.79 Bohr mag/cell
     absolute magnetization    =     1.93 Bohr mag/cell

     iteration # 21     ecut=    60.00 Ry     beta= 0.10
     CG style diagonalization

---- Real-time Memory Report at c_bands before calling an iterative solver
             0 MiB given to the printing process from OS
             0 MiB allocation reported by mallinfo(arena+hblkhd)
         88631 MiB available memory on the node where the printing process lives
------------------
     ethr =  1.45E-08,  avg # of iterations =  3.0

     negative rho (up, down):  1.023E+01 1.022E+01


     ----------------------------------------------------------------

     Non-local correlation energy =             18.770068285750902

     ----------------------------------------------------------------


     total cpu time spent up to now is    77650.8 secs

     total energy              =  -24448.98968114 Ry
     estimated scf accuracy    <       0.00020694 Ry

     total magnetization       =     1.66 Bohr mag/cell
     absolute magnetization    =     1.79 Bohr mag/cell

     iteration # 22     ecut=    60.00 Ry     beta= 0.10
     CG style diagonalization

---- Real-time Memory Report at c_bands before calling an iterative solver
             0 MiB given to the printing process from OS
             0 MiB allocation reported by mallinfo(arena+hblkhd)
         88638 MiB available memory on the node where the printing process lives
------------------
     ethr =  1.11E-08,  avg # of iterations =  3.0

     negative rho (up, down):  1.023E+01 1.021E+01


     ----------------------------------------------------------------

     Non-local correlation energy =             18.770731916250451

     ----------------------------------------------------------------


     total cpu time spent up to now is    79583.9 secs

     total energy              =  -24448.98979566 Ry
     estimated scf accuracy    <       0.00015572 Ry

     total magnetization       =     1.47 Bohr mag/cell
     absolute magnetization    =     1.59 Bohr mag/cell

     iteration # 23     ecut=    60.00 Ry     beta= 0.10
     CG style diagonalization

---- Real-time Memory Report at c_bands before calling an iterative solver
             0 MiB given to the printing process from OS
             0 MiB allocation reported by mallinfo(arena+hblkhd)
         88622 MiB available memory on the node where the printing process lives
------------------
     ethr =  8.39E-09,  avg # of iterations =  3.2

     negative rho (up, down):  1.022E+01 1.021E+01


     ----------------------------------------------------------------

     Non-local correlation energy =             18.770575316761089

     ----------------------------------------------------------------


     total cpu time spent up to now is    81656.3 secs

     total energy              =  -24448.98986655 Ry
     estimated scf accuracy    <       0.00013286 Ry

     total magnetization       =     1.29 Bohr mag/cell
     absolute magnetization    =     1.40 Bohr mag/cell

     iteration # 24     ecut=    60.00 Ry     beta= 0.10
     CG style diagonalization

---- Real-time Memory Report at c_bands before calling an iterative solver
             0 MiB given to the printing process from OS
             0 MiB allocation reported by mallinfo(arena+hblkhd)
         88606 MiB available memory on the node where the printing process lives
------------------
     ethr =  7.15E-09,  avg # of iterations =  3.0

     negative rho (up, down):  1.022E+01 1.021E+01


     ----------------------------------------------------------------

     Non-local correlation energy =             18.770531659210796

     ----------------------------------------------------------------


     total cpu time spent up to now is    83572.2 secs

     total energy              =  -24448.98998203 Ry
     estimated scf accuracy    <       0.00010173 Ry

     total magnetization       =     1.21 Bohr mag/cell
     absolute magnetization    =     1.31 Bohr mag/cell

     iteration # 25     ecut=    60.00 Ry     beta= 0.10
     CG style diagonalization

---- Real-time Memory Report at c_bands before calling an iterative solver
             0 MiB given to the printing process from OS
             0 MiB allocation reported by mallinfo(arena+hblkhd)
         88619 MiB available memory on the node where the printing process lives
------------------
     ethr =  5.48E-09,  avg # of iterations =  3.2

     negative rho (up, down):  1.022E+01 1.021E+01


     ----------------------------------------------------------------

     Non-local correlation energy =             18.771113639293038

     ----------------------------------------------------------------


     total cpu time spent up to now is    85627.7 secs

     total energy              =  -24448.98996575 Ry
     estimated scf accuracy    <       0.00006379 Ry

     total magnetization       =     0.95 Bohr mag/cell
     absolute magnetization    =     1.03 Bohr mag/cell

     iteration # 26     ecut=    60.00 Ry     beta= 0.10
     CG style diagonalization

---- Real-time Memory Report at c_bands before calling an iterative solver
             0 MiB given to the printing process from OS
             0 MiB allocation reported by mallinfo(arena+hblkhd)
         88638 MiB available memory on the node where the printing process lives
------------------
     c_bands:  2 eigenvalues not converged
     c_bands:  2 eigenvalues not converged
     ethr =  3.44E-09,  avg # of iterations =  3.3

     negative rho (up, down):  1.021E+01 1.021E+01


     ----------------------------------------------------------------

     Non-local correlation energy =             18.770922445274095

     ----------------------------------------------------------------


     total cpu time spent up to now is    87812.5 secs

     total energy              =  -24448.99005418 Ry
     estimated scf accuracy    <       0.00005121 Ry

     total magnetization       =     0.76 Bohr mag/cell
     absolute magnetization    =     0.82 Bohr mag/cell

     iteration # 27     ecut=    60.00 Ry     beta= 0.10
     CG style diagonalization

---- Real-time Memory Report at c_bands before calling an iterative solver
             0 MiB given to the printing process from OS
             0 MiB allocation reported by mallinfo(arena+hblkhd)
         88629 MiB available memory on the node where the printing process lives
------------------
     ethr =  2.76E-09,  avg # of iterations =  3.0

     negative rho (up, down):  1.021E+01 1.020E+01


     ----------------------------------------------------------------

     Non-local correlation energy =             18.770865587038884

     ----------------------------------------------------------------


     total cpu time spent up to now is    89720.7 secs

     total energy              =  -24448.99020692 Ry
     estimated scf accuracy    <       0.00004234 Ry

     total magnetization       =     0.75 Bohr mag/cell
     absolute magnetization    =     0.81 Bohr mag/cell

     iteration # 28     ecut=    60.00 Ry     beta= 0.10
     CG style diagonalization

---- Real-time Memory Report at c_bands before calling an iterative solver
             0 MiB given to the printing process from OS
             0 MiB allocation reported by mallinfo(arena+hblkhd)
         88634 MiB available memory on the node where the printing process lives
------------------
     c_bands:  2 eigenvalues not converged
     c_bands:  3 eigenvalues not converged
     ethr =  2.28E-09,  avg # of iterations =  3.7

     negative rho (up, down):  1.021E+01 1.020E+01


     ----------------------------------------------------------------

     Non-local correlation energy =             18.771110192035891

     ----------------------------------------------------------------


     total cpu time spent up to now is    92283.9 secs

     total energy              =  -24448.99025660 Ry
     estimated scf accuracy    <       0.00001684 Ry

     total magnetization       =     0.54 Bohr mag/cell
     absolute magnetization    =     0.58 Bohr mag/cell

     iteration # 29     ecut=    60.00 Ry     beta= 0.10
     CG style diagonalization

---- Real-time Memory Report at c_bands before calling an iterative solver
             0 MiB given to the printing process from OS
             0 MiB allocation reported by mallinfo(arena+hblkhd)
         88639 MiB available memory on the node where the printing process lives
------------------
     c_bands:  1 eigenvalues not converged
     c_bands:  2 eigenvalues not converged
     ethr =  9.07E-10,  avg # of iterations =  3.0

     negative rho (up, down):  1.021E+01 1.020E+01


     ----------------------------------------------------------------

     Non-local correlation energy =             18.771346194716266

     ----------------------------------------------------------------


     total cpu time spent up to now is    94225.7 secs

     total energy              =  -24448.99026027 Ry
     estimated scf accuracy    <       0.00001049 Ry

     total magnetization       =     0.52 Bohr mag/cell
     absolute magnetization    =     0.56 Bohr mag/cell

     iteration # 30     ecut=    60.00 Ry     beta= 0.10
     CG style diagonalization

---- Real-time Memory Report at c_bands before calling an iterative solver
             0 MiB given to the printing process from OS
             0 MiB allocation reported by mallinfo(arena+hblkhd)
         88624 MiB available memory on the node where the printing process lives
------------------
     c_bands:  2 eigenvalues not converged
     c_bands:  4 eigenvalues not converged
     ethr =  5.65E-10,  avg # of iterations =  3.3

     negative rho (up, down):  1.020E+01 1.020E+01


     ----------------------------------------------------------------

     Non-local correlation energy =             18.771267286931028

     ----------------------------------------------------------------


     total cpu time spent up to now is    96441.5 secs

     total energy              =  -24448.99026899 Ry
     estimated scf accuracy    <       0.00000491 Ry

     total magnetization       =     0.42 Bohr mag/cell
     absolute magnetization    =     0.46 Bohr mag/cell

     iteration # 31     ecut=    60.00 Ry     beta= 0.10
     CG style diagonalization

---- Real-time Memory Report at c_bands before calling an iterative solver
             0 MiB given to the printing process from OS
             0 MiB allocation reported by mallinfo(arena+hblkhd)
         88635 MiB available memory on the node where the printing process lives
------------------
     c_bands:  1 eigenvalues not converged
     c_bands:  1 eigenvalues not converged
     ethr =  2.64E-10,  avg # of iterations =  3.0

     negative rho (up, down):  1.020E+01 1.020E+01


     ----------------------------------------------------------------

     Non-local correlation energy =             18.771242788715934

     ----------------------------------------------------------------


     total cpu time spent up to now is    98383.0 secs

     total energy              =  -24448.99027706 Ry
     estimated scf accuracy    <       0.00000326 Ry

     total magnetization       =     0.41 Bohr mag/cell
     absolute magnetization    =     0.45 Bohr mag/cell

     iteration # 32     ecut=    60.00 Ry     beta= 0.10
     CG style diagonalization

---- Real-time Memory Report at c_bands before calling an iterative solver
             0 MiB given to the printing process from OS
             0 MiB allocation reported by mallinfo(arena+hblkhd)
         88635 MiB available memory on the node where the printing process lives
------------------
     c_bands:  1 eigenvalues not converged
     ethr =  1.75E-10,  avg # of iterations =  3.0

     negative rho (up, down):  1.020E+01 1.020E+01


     ----------------------------------------------------------------

     Non-local correlation energy =             18.771302491247848

     ----------------------------------------------------------------


     total cpu time spent up to now is   100304.4 secs

     total energy              =  -24448.99028652 Ry
     estimated scf accuracy    <       0.00000293 Ry

     total magnetization       =     0.40 Bohr mag/cell
     absolute magnetization    =     0.44 Bohr mag/cell

     iteration # 33     ecut=    60.00 Ry     beta= 0.10
     CG style diagonalization

---- Real-time Memory Report at c_bands before calling an iterative solver
             0 MiB given to the printing process from OS
             0 MiB allocation reported by mallinfo(arena+hblkhd)
         88635 MiB available memory on the node where the printing process lives
------------------
     ethr =  1.58E-10,  avg # of iterations =  3.0

     negative rho (up, down):  1.020E+01 1.020E+01


     ----------------------------------------------------------------

     Non-local correlation energy =             18.771157532948287

     ----------------------------------------------------------------


     total cpu time spent up to now is   102247.2 secs

     total energy              =  -24448.99029487 Ry
     estimated scf accuracy    <       0.00000249 Ry

     total magnetization       =     0.39 Bohr mag/cell
     absolute magnetization    =     0.42 Bohr mag/cell

     iteration # 34     ecut=    60.00 Ry     beta= 0.10
     CG style diagonalization

---- Real-time Memory Report at c_bands before calling an iterative solver
             0 MiB given to the printing process from OS
             0 MiB allocation reported by mallinfo(arena+hblkhd)
         88626 MiB available memory on the node where the printing process lives
------------------
     ethr =  1.34E-10,  avg # of iterations =  3.6

     negative rho (up, down):  1.020E+01 1.020E+01


     ----------------------------------------------------------------

     Non-local correlation energy =             18.771540854853288

     ----------------------------------------------------------------


     total cpu time spent up to now is   104706.3 secs

     total energy              =  -24448.99028199 Ry
     estimated scf accuracy    <       0.00000428 Ry

     total magnetization       =     0.33 Bohr mag/cell
     absolute magnetization    =     0.36 Bohr mag/cell

     iteration # 35     ecut=    60.00 Ry     beta= 0.10
     CG style diagonalization

---- Real-time Memory Report at c_bands before calling an iterative solver
             0 MiB given to the printing process from OS
             0 MiB allocation reported by mallinfo(arena+hblkhd)
         88626 MiB available memory on the node where the printing process lives
------------------
     ethr =  1.34E-10,  avg # of iterations =  4.2

     negative rho (up, down):  1.020E+01 1.020E+01


     ----------------------------------------------------------------

     Non-local correlation energy =             18.771399005637186

     ----------------------------------------------------------------


     total cpu time spent up to now is   107692.7 secs

     total energy              =  -24448.99029962 Ry
     estimated scf accuracy    <       0.00000453 Ry

     total magnetization       =     0.25 Bohr mag/cell
     absolute magnetization    =     0.27 Bohr mag/cell

     iteration # 36     ecut=    60.00 Ry     beta= 0.10
     CG style diagonalization

---- Real-time Memory Report at c_bands before calling an iterative solver
             0 MiB given to the printing process from OS
             0 MiB allocation reported by mallinfo(arena+hblkhd)
         88634 MiB available memory on the node where the printing process lives
------------------
     ethr =  1.34E-10,  avg # of iterations =  3.5

     negative rho (up, down):  1.020E+01 1.020E+01


     ----------------------------------------------------------------

     Non-local correlation energy =             18.771308122029723

     ----------------------------------------------------------------

 
     Magnetic moment per site  (integrated on atomic sphere of radius R)
     atom   1 (R=0.030)  charge=  9.9922  magn=  0.0005
     atom   2 (R=0.030)  charge= 10.0156  magn=  0.0008
     atom   3 (R=0.030)  charge=  9.9868  magn=  0.0006
     atom   4 (R=0.030)  charge=  9.9884  magn=  0.0008
     atom   5 (R=0.030)  charge= 10.0108  magn=  0.0014
     atom   6 (R=0.030)  charge=  9.9899  magn=  0.0007
     atom   7 (R=0.030)  charge= 10.0111  magn=  0.0014
     atom   8 (R=0.030)  charge= 10.0016  magn=  0.0005
     atom   9 (R=0.030)  charge=  9.9979  magn=  0.0005
     atom  10 (R=0.030)  charge=  9.9870  magn=  0.0009
     atom  11 (R=0.030)  charge=  9.9859  magn=  0.0013
     atom  12 (R=0.030)  charge=  9.9974  magn=  0.0006
     atom  13 (R=0.030)  charge= 10.0127  magn=  0.0018
     atom  14 (R=0.030)  charge=  9.9887  magn=  0.0009
     atom  15 (R=0.030)  charge=  9.9861  magn=  0.0015
     atom  16 (R=0.030)  charge= 10.0116  magn=  0.0018
     atom  17 (R=0.030)  charge=  9.9887  magn=  0.0010
     atom  18 (R=0.030)  charge=  9.9977  magn=  0.0009
     atom  19 (R=0.030)  charge= 10.0111  magn=  0.0019
     atom  20 (R=0.030)  charge=  9.9862  magn=  0.0017
     atom  21 (R=0.030)  charge=  9.9887  magn=  0.0010
     atom  22 (R=0.030)  charge=  9.9974  magn=  0.0009
     atom  23 (R=0.030)  charge=  9.9885  magn=  0.0011
     atom  24 (R=0.030)  charge=  9.9890  magn=  0.0011
     atom  25 (R=0.030)  charge= 10.0110  magn=  0.0019
     atom  26 (R=0.030)  charge=  9.9888  magn=  0.0007
     atom  27 (R=0.030)  charge= 10.0109  magn=  0.0015
     atom  28 (R=0.030)  charge= 10.0109  magn=  0.0015
     atom  29 (R=0.030)  charge=  9.9979  magn=  0.0005
     atom  30 (R=0.030)  charge=  9.9866  magn=  0.0010
     atom  31 (R=0.030)  charge=  9.9984  magn=  0.0005
     atom  32 (R=0.030)  charge=  9.9865  magn=  0.0014
     atom  33 (R=0.030)  charge=  9.9955  magn=  0.0006
     atom  34 (R=0.030)  charge=  9.9897  magn=  0.0009
     atom  35 (R=0.030)  charge= 10.0110  magn=  0.0016
     atom  36 (R=0.030)  charge=  9.9867  magn=  0.0015
     atom  37 (R=0.030)  charge= 10.0111  magn=  0.0017
     atom  38 (R=0.030)  charge=  9.9975  magn=  0.0007
     atom  39 (R=0.030)  charge=  9.9863  magn=  0.0013
     atom  40 (R=0.030)  charge=  9.9863  magn=  0.0014
     atom  41 (R=0.030)  charge=  9.9981  magn=  0.0006
     atom  42 (R=0.030)  charge=  9.9813  magn=  0.0012
     atom  43 (R=0.030)  charge=  9.9798  magn=  0.0005
     atom  44 (R=0.030)  charge=  9.9793  magn=  0.0005
     atom  45 (R=0.030)  charge=  9.9803  magn=  0.0005
     atom  46 (R=0.030)  charge=  9.9827  magn=  0.0014
     atom  47 (R=0.030)  charge=  9.9863  magn=  0.0016
     atom  48 (R=0.030)  charge=  9.9864  magn=  0.0016
     atom  49 (R=0.030)  charge=  9.9795  magn=  0.0006
     atom  50 (R=0.030)  charge=  9.9973  magn=  0.0008
     atom  51 (R=0.030)  charge=  9.9980  magn=  0.0006
     atom  52 (R=0.030)  charge=  9.9974  magn=  0.0008
     atom  53 (R=0.030)  charge=  9.9888  magn=  0.0010
     atom  54 (R=0.030)  charge=  9.9862  magn=  0.0015
     atom  55 (R=0.030)  charge= 10.0109  magn=  0.0017
     atom  56 (R=0.030)  charge=  9.9827  magn=  0.0016
     atom  57 (R=0.030)  charge=  9.9861  magn=  0.0017
     atom  58 (R=0.030)  charge=  9.9793  magn=  0.0007
     atom  59 (R=0.030)  charge=  9.9864  magn=  0.0016
     atom  60 (R=0.030)  charge=  9.9826  magn=  0.0017
     atom  61 (R=0.030)  charge=  9.9887  magn=  0.0010
     atom  62 (R=0.030)  charge=  9.9862  magn=  0.0017
     atom  63 (R=0.030)  charge=  9.9865  magn=  0.0018
     atom  64 (R=0.030)  charge=  9.9978  magn=  0.0010
     atom  65 (R=0.030)  charge= 10.0111  magn=  0.0020
     atom  66 (R=0.030)  charge= 10.0110  magn=  0.0018
     atom  67 (R=0.030)  charge=  9.9977  magn=  0.0009
     atom  68 (R=0.030)  charge=  9.9981  magn=  0.0006
     atom  69 (R=0.030)  charge=  9.9976  magn=  0.0010
     atom  70 (R=0.030)  charge= 10.0109  magn=  0.0020
     atom  71 (R=0.030)  charge=  9.9888  magn=  0.0010
     atom  72 (R=0.030)  charge=  9.9975  magn=  0.0008
     atom  73 (R=0.030)  charge=  9.9861  magn=  0.0016
     atom  74 (R=0.030)  charge= 10.0110  magn=  0.0018
     atom  75 (R=0.030)  charge=  9.9888  magn=  0.0010
     atom  76 (R=0.030)  charge=  9.9978  magn=  0.0009
     atom  77 (R=0.030)  charge=  9.9883  magn=  0.0011
     atom  78 (R=0.030)  charge=  9.9889  magn=  0.0011
     atom  79 (R=0.030)  charge=  9.9980  magn=  0.0008
     atom  80 (R=0.030)  charge=  9.9861  magn=  0.0016
     atom  81 (R=0.030)  charge=  9.9889  magn=  0.0010
     atom  82 (R=0.030)  charge= 10.0111  magn=  0.0019
     atom  83 (R=0.030)  charge=  9.9826  magn=  0.0017
     atom  84 (R=0.030)  charge=  9.9796  magn=  0.0007
     atom  85 (R=0.030)  charge=  9.9862  magn=  0.0017
     atom  86 (R=0.030)  charge=  9.9862  magn=  0.0017
     atom  87 (R=0.030)  charge=  9.9825  magn=  0.0017
     atom  88 (R=0.030)  charge=  9.9861  magn=  0.0017
     atom  89 (R=0.030)  charge=  9.9887  magn=  0.0011
     atom  90 (R=0.030)  charge=  9.9863  magn=  0.0017
     atom  91 (R=0.030)  charge=  9.9972  magn=  0.0009
     atom  92 (R=0.030)  charge= 10.0108  magn=  0.0019
     atom  93 (R=0.030)  charge=  9.9976  magn=  0.0009
     atom  94 (R=0.030)  charge=  9.9886  magn=  0.0010
     atom  95 (R=0.030)  charge=  9.9889  magn=  0.0011
     atom  96 (R=0.030)  charge=  9.9831  magn=  0.0016
     atom  97 (R=0.030)  charge=  9.9858  magn=  0.0017
     atom  98 (R=0.030)  charge=  9.9860  magn=  0.0018
     atom  99 (R=0.030)  charge=  9.9888  magn=  0.0011
     atom 100 (R=0.030)  charge=  9.9825  magn=  0.0018
     atom 101 (R=0.030)  charge=  9.9887  magn=  0.0011
     atom 102 (R=0.030)  charge=  9.9886  magn=  0.0011
     atom 103 (R=0.030)  charge=  9.9888  magn=  0.0011
     atom 104 (R=0.030)  charge=  9.9976  magn=  0.0010
     atom 105 (R=0.030)  charge=  9.9975  magn=  0.0009
     atom 106 (R=0.030)  charge= 10.0104  magn=  0.0019
     atom 107 (R=0.030)  charge=  9.9975  magn=  0.0010
     atom 108 (R=0.030)  charge= 10.0111  magn=  0.0019
     atom 109 (R=0.030)  charge= 10.0110  magn=  0.0019
     atom 110 (R=0.030)  charge=  9.9978  magn=  0.0009
     atom 111 (R=0.030)  charge=  9.9982  magn=  0.0007
     atom 112 (R=0.030)  charge=  9.9977  magn=  0.0009
     atom 113 (R=0.030)  charge= 10.0111  magn=  0.0019
     atom 114 (R=0.030)  charge=  9.9975  magn=  0.0010
     atom 115 (R=0.030)  charge= 10.0109  magn=  0.0019
     atom 116 (R=0.030)  charge=  9.9978  magn=  0.0010
     atom 117 (R=0.030)  charge=  0.8496  magn=  0.0000

     total cpu time spent up to now is   110084.1 secs

     End of self-consistent calculation

 ------ SPIN UP ------------


          k = 0.0000 0.0000 0.0000 (413569 PWs)   bands (ev):

   -55.5430 -55.4900 -55.4882 -55.4874 -55.4750 -55.4740 -55.4731 -55.4658
   -55.4651 -55.4633 -55.4616 -55.4604 -55.4160 -55.4140 -55.4130 -55.4127
   -55.4121 -55.4102 -55.3885 -55.3876 -55.3764 -55.3754 -55.3693 -55.3687
   -55.3680 -55.3673 -55.3664 -55.3650 -55.3595 -55.3307 -55.3295 -55.3277
   -55.3009 -55.3003 -55.2999 -55.2989 -55.2984 -55.2979 -55.2968 -55.2967
   -55.2962 -55.2893 -55.2819 -55.2761 -55.2749 -55.2596 -55.2591 -55.2577
   -55.2555 -55.2537 -55.2533 -55.2526 -55.2517 -55.2506 -55.2434 -55.2420
   -55.2416 -55.2401 -55.2227 -55.2217 -55.2195 -55.2184 -55.2172 -55.2159
   -55.2136 -55.2086 -55.2060 -55.2045 -55.2042 -55.2031 -55.2015 -55.1764
   -55.1752 -55.1742 -55.1708 -55.1695 -55.1690 -55.1682 -55.1661 -55.1655
   -55.1644 -55.1629 -55.1385 -55.1371 -55.1356 -55.1316 -55.1292 -55.1285
   -55.1266 -55.1219 -55.1200 -55.1117 -55.1047 -55.0999 -55.0996 -55.0981
   -55.0964 -55.0957 -55.0950 -55.0941 -55.0932 -55.0926 -55.0903 -55.0897
   -55.0882 -55.0872 -55.0812 -55.0764 -55.0758 -55.0727 -55.0677 -55.0667
   -55.0665 -55.0594 -54.9577 -54.8957 -54.8944 -54.8932 -54.8923 -54.8908
   -54.8902 -54.8888 -54.8868 -54.8475 -54.8395 -54.8372 -54.8367 -54.8355
   -54.8350 -54.8339 -54.8327 -54.8323 -54.8318 -54.8306 -54.8300 -54.8293
   -54.8253 -54.8244 -54.7978 -54.7778 -54.7742 -54.7724 -54.7675 -54.7667
   -54.7646 -54.7608 -54.7573 -54.7400 -54.7300 -54.7290 -54.7269 -54.7254
   -54.7224 -54.7212 -54.7195 -54.7192 -54.7189 -54.7174 -54.7168 -54.7155
   -54.7137 -54.7133 -54.7116 -54.7046 -54.7008 -54.6981 -54.6979 -54.6973
   -54.6954 -54.6948 -54.6941 -54.6930 -54.6921 -54.6891 -54.6878 -54.6865
   -54.6862 -54.6833 -54.6632 -54.6600 -54.6590 -54.6583 -54.6579 -54.6572
   -54.6539 -54.6516 -54.6489 -54.6489 -54.6482 -54.6478 -54.6470 -54.6426
   -54.6401 -54.6378 -54.6361 -54.6343 -54.6336 -54.6303 -54.6132 -54.5490
   -54.5390 -54.5368 -54.5266 -54.5251 -54.5222 -54.5219 -54.5189 -54.5174
   -54.5140 -54.5115 -54.5083 -54.5072 -54.4785 -54.4770 -54.4754 -54.4747
   -54.4723 -54.4716 -54.4706 -54.4671 -54.4652 -54.4650 -54.4647 -54.4637
   -54.4635 -54.4623 -54.4603 -54.4600 -54.4576 -54.4559 -54.4525 -54.4497
   -54.4491 -54.4476 -54.4464 -54.4448 -54.4442 -54.4440 -54.4432 -54.4414
   -54.4346 -54.4318 -54.4278 -54.4269 -54.4259 -54.4252 -54.4226 -54.4207
   -54.4194 -54.4192 -54.4182 -54.4164 -54.4146 -54.4078 -54.4063 -54.4055
   -54.4053 -54.4043 -54.3981 -54.3956 -54.3710 -54.3682 -54.3677 -54.3666
   -54.3632 -54.3628 -54.3613 -54.3599 -54.3588 -54.3582 -54.3578 -54.3575
   -54.3560 -54.3558 -54.3525 -54.3523 -54.3477 -54.3436 -54.3404 -54.3375
   -54.3365 -54.3363 -54.3354 -54.3347 -54.3338 -54.3320 -54.3294 -54.3230
   -54.3227 -54.3226 -54.3217 -54.3217 -54.3213 -54.3211 -54.3209 -54.3204
   -54.3203 -54.3201 -54.3198 -54.3195 -54.3188 -54.3087 -54.3072 -54.3061
   -54.3060 -54.3055 -54.3049 -54.3047 -54.3045 -54.2993 -54.2979 -54.2975
   -54.2973 -54.2968 -54.2961 -54.2961 -54.2954 -54.2947 -54.2944 -54.2943
   -54.2924 -54.2919 -54.2888 -54.2879 -54.2848 -54.2470 -54.2460 -54.2451
   -54.2439 -54.2431 -54.2424 -54.2422 -54.2415 -54.2413 -54.2401 -54.2352
   -54.2127 -54.2124 -54.2111 -54.2099 -54.2099 -54.2095 -54.2094 -54.2090
   -54.2089 -54.2075 -54.2071 -54.1993 -11.5028 -10.6667 -10.6590 -10.6583
    -9.8107  -9.7889  -9.7888  -9.7631  -9.7589  -9.5545  -9.1895  -9.1782
    -9.1778  -9.0923  -8.9909  -8.9548  -8.9542  -8.7697  -8.7522  -8.7513
    -8.7401  -8.7145  -8.7136  -8.6836  -8.6481  -8.5885  -8.5856  -8.5813
    -8.5799  -8.5789  -8.5702  -8.5551  -8.5522  -8.5520  -8.3904  -8.3843
    -8.3818  -8.3483  -8.3353  -8.3222  -8.3206  -8.3194  -8.2935  -8.2915
    -8.2897  -8.2483  -8.2469  -8.2468  -8.1206  -8.1176  -8.0900  -8.0573
    -8.0558  -8.0295  -7.9878  -7.9673  -7.9507  -7.9104  -7.9085  -7.9075
    -7.9071  -7.9065  -7.8639  -7.8525  -7.8374  -7.8323  -7.8310  -7.8248
    -7.8238  -7.7839  -7.7313  -7.7126  -7.6973  -7.6961  -7.6726  -7.6643
    -7.5835  -7.5794  -7.5789  -7.5735  -7.5714  -7.5704  -7.5693  -7.5686
    -7.5680  -7.5623  -7.5609  -7.5603  -7.5497  -7.5434  -7.5420  -7.4922
    -7.4667  -7.4603  -7.4551  -7.4544  -7.4534  -7.4526  -7.4444  -7.4440
    -7.4406  -7.4337  -7.4329  -7.4117  -7.3874  -7.3861  -7.3855  -7.3226
    -7.3148  -7.3075  -7.2306  -7.2283  -7.2257  -7.2015  -7.1843  -7.1832
    -7.1067  -7.1005  -7.0974  -7.0683  -7.0630  -7.0616  -7.0357  -6.9944
    -6.9935  -6.9883  -6.9505  -6.9485  -6.9293  -6.9135  -6.9111  -6.9093
    -6.9017  -6.8983  -6.8384  -6.7967  -6.7961  -6.7917  -6.7388  -6.6906
    -6.6447  -6.6382  -6.5907  -6.5876  -6.5842  -6.5816  -6.5804  -6.5780
    -6.5644  -6.5621  -6.5589  -6.5267  -6.5248  -6.5203  -6.5198  -6.5170
    -6.4907  -6.4678  -6.4638  -6.4594  -6.4574  -6.4545  -6.4506  -6.4500
    -6.4494  -6.4480  -6.4468  -6.4461  -6.4459  -6.4447  -6.3840  -6.3445
    -6.3433  -6.3355  -6.3328  -6.3316  -6.3234  -6.3105  -6.2933  -6.2912
    -6.2711  -6.2392  -6.2319  -6.2301  -6.2285  -6.2269  -6.2264  -6.2138
    -6.1981  -6.1971  -6.1845  -6.1793  -6.1783  -6.1510  -6.1265  -6.1044
    -6.1005  -6.0949  -6.0726  -6.0717  -6.0637  -6.0512  -6.0331  -6.0298
    -6.0271  -6.0181  -6.0110  -6.0006  -5.9955  -5.9909  -5.9891  -5.9829
    -5.9803  -5.9795  -5.9152  -5.9025  -5.8952  -5.8946  -5.8929  -5.8717
    -5.8621  -5.8615  -5.8366  -5.8164  -5.8147  -5.7599  -5.7273  -5.7232
    -5.6987  -5.6975  -5.6958  -5.6804  -5.6781  -5.6568  -5.6556  -5.6448
    -5.6429  -5.6404  -5.6321  -5.6299  -5.6286  -5.6261  -5.6234  -5.6119
    -5.6094  -5.6069  -5.5601  -5.5356  -5.5159  -5.5138  -5.5122  -5.5013
    -5.5002  -5.4799  -5.4752  -5.4723  -5.4674  -5.4524  -5.4493  -5.4487
    -5.4341  -5.4252  -5.4151  -5.4034  -5.4018  -5.3913  -5.3747  -5.3633
    -5.3522  -5.3171  -5.3126  -5.2975  -5.2801  -5.2775  -5.2368  -5.2247
    -5.2243  -5.2160  -5.2054  -5.1651  -5.1621  -5.1542  -5.1501  -5.1394
    -5.1217  -5.1152  -5.1136  -5.1120  -5.1118  -5.1065  -5.1013  -5.0989
    -5.0957  -5.0738  -5.0625  -5.0601  -5.0422  -5.0385  -5.0358  -4.9992
    -4.9980  -4.9831  -4.9788  -4.9734  -4.9694  -4.9675  -4.9662  -4.9654
    -4.9359  -4.8794  -4.8750  -4.8737  -4.8421  -4.8414  -4.8368  -4.8281
    -4.8201  -4.8097  -4.8086  -4.8026  -4.7966  -4.7954  -4.7742  -4.7478
    -4.7444  -4.7371  -4.7351  -4.7339  -4.7281  -4.6541  -4.6246  -4.6234
    -4.6049  -4.5512  -4.5494  -4.5469  -4.5438  -4.5410  -4.5349  -4.5247
    -4.5105  -4.4992  -4.4978  -4.4950  -4.4912  -4.4903  -4.4811  -4.4626
    -4.4556  -4.4508  -4.4507  -4.4429  -4.3849  -4.3840  -4.3735  -4.3711
    -4.3448  -4.3441  -4.3423  -4.3400  -4.3221  -4.3125  -4.3097  -4.3096
    -4.3058  -4.3019  -4.2982  -4.2752  -4.2741  -4.2715  -4.2652  -4.2635
    -4.2597  -4.2584  -4.2436  -4.2392  -4.2374  -4.1788  -4.1560  -4.1437
    -4.1309  -4.1260  -4.1245  -4.1236  -4.1025  -4.0937  -4.0919  -4.0912
    -4.0886  -4.0878  -4.0683  -4.0279  -4.0249  -4.0187  -4.0059  -4.0005
    -3.9695  -3.9594  -3.9577  -3.9362  -3.9163  -3.9023  -3.9010  -3.8985
    -3.8979  -3.8885  -3.8812  -3.8776  -3.8716  -3.8192  -3.7998  -3.7961
    -3.7941  -3.7934  -3.7922  -3.7887  -3.7818  -3.7782  -3.7774  -3.7719
    -3.7706  -3.7634  -3.7479  -3.7425  -3.7333  -3.7294  -3.7279  -3.7200
    -3.7094  -3.7079  -3.7050  -3.6811  -3.6796  -3.6735  -3.6679  -3.6673
    -3.6295  -3.6126  -3.6120  -3.6103  -3.6045  -3.6028  -3.5943  -3.5895
    -3.5876  -3.5674  -3.5617  -3.5589  -3.5512  -3.5297  -3.5289  -3.5270
    -3.5196  -3.5182  -3.4897  -3.4860  -3.4838  -3.4728  -3.4556  -3.4303
    -3.4154  -3.4071  -3.3965  -3.3920  -3.3911  -3.3718  -3.3498  -3.3469
    -3.3451  -3.3288  -3.3196  -3.3156  -3.3154  -3.2908  -3.2905  -3.2557
    -3.2390  -3.2307  -3.2284  -3.2238  -3.2165  -3.2062  -3.2052  -3.1998
    -3.1929  -3.1922  -3.1810  -3.1722  -3.1709  -3.1682  -3.1626  -3.1578
    -3.1330  -3.1223  -3.1078  -3.0983  -3.0972  -3.0948  -3.0931  -3.0859
    -3.0850  -3.0842  -3.0836  -3.0809  -3.0769  -3.0580  -3.0504  -3.0481
    -3.0293  -2.9996  -2.9980  -2.9848  -2.9744  -2.9731  -2.9720  -2.9692
    -2.9666  -2.9320  -2.9068  -2.9040  -2.8751  -2.8634  -2.8579  -2.8553
    -2.8505  -2.8473  -2.8398  -2.8341  -2.8323  -2.8307  -2.7818  -2.7797
    -2.7788  -2.7767  -2.7479  -2.7416  -2.7332  -2.6909  -2.6837  -2.6828
    -2.6815  -2.6809  -2.6806  -2.6794  -2.6787  -2.6758  -2.6751  -2.6490
    -2.6251  -2.6223  -2.6210  -2.6077  -2.6010  -2.5986  -2.5976  -2.5968
    -2.5939  -2.5932  -2.5921  -2.5897  -2.5887  -2.5877  -2.5858  -2.5847
    -2.5797  -2.5780  -2.5565  -2.5535  -2.5516  -2.5513  -2.5337  -2.5276
    -2.5252  -2.5236  -2.5228  -2.5207  -2.4800  -2.4733  -2.4406  -2.4361
    -2.4324  -2.4307  -2.4058  -2.3972  -2.3953  -2.3868  -2.3754  -2.3728
    -2.3520  -2.3470  -2.3445  -2.3200  -2.2946  -2.2925  -2.2916  -2.2798
    -2.2766  -2.2700  -2.2577  -2.2561  -2.2553  -2.2545  -2.2474  -2.2089
    -2.2070  -2.2052  -2.1726  -2.1698  -2.1350  -2.1280  -2.1145  -2.0872
    -2.0754  -2.0665  -2.0642  -2.0537  -2.0500  -2.0487  -2.0484  -2.0467
    -2.0461  -2.0452  -2.0444  -2.0434  -1.8370  -1.8327  -1.5487  -1.2831
    -1.2804  -1.2787  -1.2779  -1.2773  -1.2443  -1.2102  -1.1522  -1.1520
    -1.1491  -1.1430  -1.1396  -1.1203  -1.1053  -1.1029  -1.1013  -1.0449
    -1.0427  -1.0363  -0.9480  -0.9237  -0.9194  -0.5523  -0.4336  -0.4313
    -0.2554  -0.1383   0.0024   0.0058   0.0260   0.0714   0.0748   0.0819
     0.0889   0.0946   0.1256   0.1634   0.1661   0.2027   0.2649   0.2690
     0.2707   0.2743   0.2751   0.2795   0.2820   0.2886   0.2932   0.4042
     0.4101   0.4117   0.4982   1.0333   1.2249   1.2267   1.2559   1.3603
     1.3621   1.3942   1.4743   1.4750   1.4925   1.4966   1.5006   1.5027
     1.5030   1.5307   1.5379   1.5406   1.5633   1.5675   1.5719   1.5994
     1.6140   1.6584   1.6641   1.6737   1.6821   1.6929   1.6946   1.8974
     2.1571   2.2217   2.2326   2.2997   2.3170   2.3187   2.3580   2.4788
     2.4981   2.5039   2.5180   2.5210   2.5394   2.6707   2.7004   2.7035
     2.7161   2.7236   2.7449   2.7623   2.7631   2.7658   2.7739   2.7768
[...]
     atom   15 type  1   force =     0.00002671   -0.00000187   -0.00001761
     atom   16 type  1   force =     0.00000619   -0.00000085   -0.00000335
     atom   17 type  1   force =    -0.00000570    0.00000297    0.00000678
     atom   18 type  1   force =    -0.00000564   -0.00000527    0.00000414
     atom   19 type  1   force =    -0.00000243   -0.00000405    0.00000039
     atom   20 type  1   force =     0.00002291   -0.00002212    0.00000446
     atom   21 type  1   force =    -0.00000044   -0.00000561    0.00000152
     atom   22 type  1   force =    -0.00000037   -0.00000652   -0.00000278
     atom   23 type  1   force =     0.00000688    0.00000139   -0.00000221
     atom   24 type  1   force =     0.00000562   -0.00000338    0.00000434
     atom   25 type  1   force =     0.00000240    0.00000013    0.00000288
     atom   26 type  1   force =     0.00000299    0.00000120   -0.00000253
     atom   27 type  1   force =    -0.00000124   -0.00000669   -0.00000317
     atom   28 type  1   force =    -0.00000411   -0.00000563   -0.00000044
     atom   29 type  1   force =    -0.00000028   -0.00001016    0.00000253
     atom   30 type  1   force =     0.00000882    0.00003201    0.00000857
     atom   31 type  1   force =    -0.00000308   -0.00000216    0.00000004
     atom   32 type  1   force =    -0.00000404    0.00002650    0.00001596
     atom   33 type  1   force =    -0.00000474   -0.00000006    0.00000011
     atom   34 type  1   force =    -0.00000429    0.00000783   -0.00000222
     atom   35 type  1   force =    -0.00000181   -0.00000099    0.00000888
     atom   36 type  1   force =    -0.00000862    0.00003143   -0.00000890
     atom   37 type  1   force =    -0.00000261    0.00000783    0.00000443
     atom   38 type  1   force =    -0.00000497   -0.00000330   -0.00000059
     atom   39 type  1   force =     0.00000705   -0.00000134    0.00003229
     atom   40 type  1   force =    -0.00000911    0.00001269    0.00003035
     atom   41 type  1   force =    -0.00000434    0.00000075   -0.00000215
     atom   42 type  1   force =     0.00002268    0.00003811    0.00003516
     atom   43 type  1   force =     0.00005155   -0.00000250    0.00001073
     atom   44 type  1   force =    -0.00001548    0.00006504    0.00001028
     atom   45 type  1   force =    -0.00001233   -0.00000035    0.00006859
     atom   46 type  1   force =     0.00002032    0.00003408   -0.00002320
     atom   47 type  1   force =     0.00001836   -0.00000100   -0.00002655
     atom   48 type  1   force =    -0.00000643    0.00002219   -0.00002051
     atom   49 type  1   force =    -0.00001155    0.00000332   -0.00005495
     atom   50 type  1   force =     0.00000348    0.00000477   -0.00000106
     atom   51 type  1   force =    -0.00000504   -0.00000200    0.00000087
     atom   52 type  1   force =    -0.00000424    0.00000602   -0.00000265
     atom   53 type  1   force =    -0.00000257    0.00000398    0.00000487
     atom   54 type  1   force =    -0.00000455   -0.00000747    0.00002972
     atom   55 type  1   force =    -0.00000279    0.00001229   -0.00000259
     atom   56 type  1   force =     0.00001783   -0.00002407    0.00003382
     atom   57 type  1   force =     0.00001412   -0.00002681    0.00000667
     atom   58 type  1   force =    -0.00000729   -0.00005809    0.00001245
     atom   59 type  1   force =    -0.00000146   -0.00001618    0.00001971
     atom   60 type  1   force =     0.00002594   -0.00002941   -0.00002303
     atom   61 type  1   force =    -0.00000049   -0.00000372   -0.00000209
     atom   62 type  1   force =    -0.00000462   -0.00001942   -0.00002234
     atom   63 type  1   force =    -0.00000318   -0.00002489   -0.00001071
     atom   64 type  1   force =     0.00000448   -0.00000553   -0.00000071
     atom   65 type  1   force =    -0.00000328   -0.00000442    0.00000042
     atom   66 type  1   force =    -0.00000032    0.00000985    0.00000087
     atom   67 type  1   force =     0.00000333    0.00000446    0.00000180
     atom   68 type  1   force =    -0.00000084    0.00000117    0.00000072
     atom   69 type  1   force =     0.00000180    0.00000056    0.00000192
     atom   70 type  1   force =    -0.00000287    0.00000134   -0.00000050
     atom   71 type  1   force =     0.00000025   -0.00000621    0.00000071
     atom   72 type  1   force =    -0.00000179   -0.00000740   -0.00000280
     atom   73 type  1   force =    -0.00001933    0.00002474    0.00000532
     atom   74 type  1   force =     0.00000105   -0.00000865    0.00000079
     atom   75 type  1   force =     0.00000142   -0.00000349   -0.00000336
     atom   76 type  1   force =    -0.00000228   -0.00000604    0.00000726
     atom   77 type  1   force =    -0.00000404    0.00000354    0.00000747
     atom   78 type  1   force =    -0.00000225    0.00000078    0.00000724
     atom   79 type  1   force =     0.00000374   -0.00000184   -0.00000692
     atom   80 type  1   force =    -0.00001312    0.00000241    0.00002557
     atom   81 type  1   force =     0.00000468   -0.00000240   -0.00000278
     atom   82 type  1   force =     0.00000951    0.00000024   -0.00000908
     atom   83 type  1   force =    -0.00002886    0.00002302    0.00002795
     atom   84 type  1   force =    -0.00006646    0.00000769    0.00001096
     atom   85 type  1   force =    -0.00002224    0.00001612    0.00000519
     atom   86 type  1   force =    -0.00001784    0.00000706    0.00001712
     atom   87 type  1   force =    -0.00003516    0.00002968   -0.00001596
     atom   88 type  1   force =    -0.00002676    0.00000216   -0.00001758
     atom   89 type  1   force =    -0.00000363   -0.00000069    0.00000711
     atom   90 type  1   force =    -0.00002500    0.00000603   -0.00000885
     atom   91 type  1   force =    -0.00001056    0.00000299    0.00000610
     atom   92 type  1   force =    -0.00000538   -0.00000122    0.00000727
     atom   93 type  1   force =     0.00000123    0.00000541   -0.00000440
     atom   94 type  1   force =     0.00000011    0.00001134    0.00000730
     atom   95 type  1   force =     0.00000588    0.00000807    0.00000442
     atom   96 type  1   force =    -0.00002463   -0.00001445    0.00003229
     atom   97 type  1   force =    -0.00001422   -0.00001849    0.00000151
     atom   98 type  1   force =    -0.00002159   -0.00000337    0.00000254
     atom   99 type  1   force =     0.00000158    0.00000788    0.00000396
     atom  100 type  1   force =    -0.00003138   -0.00002089   -0.00002025
     atom  101 type  1   force =    -0.00000376   -0.00000023    0.00000067
     atom  102 type  1   force =    -0.00000548    0.00000453    0.00000167
     atom  103 type  1   force =    -0.00000279    0.00000329   -0.00000038
     atom  104 type  1   force =    -0.00000970   -0.00000320    0.00000435
     atom  105 type  1   force =    -0.00000015    0.00000631    0.00000099
     atom  106 type  1   force =     0.00000096    0.00000354   -0.00000199
     atom  107 type  1   force =    -0.00000228    0.00000255   -0.00000013
     atom  108 type  1   force =     0.00000967   -0.00000299    0.00000110
     atom  109 type  1   force =     0.00001391    0.00000347   -0.00000451
     atom  110 type  1   force =     0.00001166    0.00000124   -0.00000121
     atom  111 type  1   force =     0.00000695    0.00000553    0.00000259
     atom  112 type  1   force =     0.00000854    0.00000189    0.00000524
     atom  113 type  1   force =     0.00000520   -0.00000006    0.00000457
     atom  114 type  1   force =     0.00000812    0.00000836    0.00000253
     atom  115 type  1   force =     0.00000281    0.00000588   -0.00000091
     atom  116 type  1   force =     0.00000419    0.00000513   -0.00000074
     atom  117 type  2   force =    -0.00000131    0.00000003    0.00000145

     Total force =     0.003972     Total SCF correction =     0.000262
     Energy error            =      5.2E-05 Ry
     Gradient error          =      1.0E-03 Ry/Bohr

     bfgs converged in  23 scf cycles and  22 bfgs steps
     (criteria: energy <  1.0E-04 Ry, force <  1.0E-03 Ry/Bohr)

     End of BFGS Geometry Optimization

     Final energy             =  -24449.0138084735 Ry

     File ./out/calc.bfgs deleted, as requested
Begin final coordinates

ATOMIC_POSITIONS (angstrom)
Pt              -5.7949770227       -3.8426124042       -0.0011170405
Pt              -3.8035567699       -5.8060140979        0.0362262345
Pt              -4.1785028052       -4.1609389757       -2.2215141171
Pt              -4.0542391389       -4.0605075120        2.1381841379
Pt              -5.7843814782        0.0113072010       -3.8525767169
Pt              -4.0699182584       -2.1281171112       -4.0674048662
Pt              -3.8292025783        0.0068538908       -5.7925120830
Pt              -5.8340313440       -1.9193800548       -1.9588225083
Pt              -5.9175839789        0.0066045483        0.0088301655
Pt              -3.8915550248       -1.9775424124       -0.0058046698
Pt              -3.8863161931        0.0114986775       -1.9707447753
Pt              -5.8212888602       -1.9607225391        1.9668779869
Pt              -5.7955686000        0.0186641293        3.8557830166
Pt              -4.0505449655       -2.1210848411        4.0585410388
Pt              -3.8875877587        0.0019590577        1.9744414680
Pt              -3.8358467515        0.0031822990        5.7966681848
Pt              -4.0472852410        2.1306328102       -4.0578655426
Pt              -5.8349111875        1.9594421656       -1.9561263035
Pt              -5.7895991138        3.8464438404        0.0002973239
Pt              -3.8824949882        1.9714055099        0.0038772995
Pt              -4.0478946462        4.0528583288       -2.1213154306
Pt              -5.8417488450        1.9590384967        1.9576192246
Pt              -4.0478702126        2.1254405101        4.0504894228
Pt              -4.0477986276        4.0539432776        2.1205664088
Pt              -3.8375984587        5.7941154617        0.0008131051
Pt              -2.1524310727       -4.0626297299       -4.0368521030
Pt              -0.0087390222       -5.7830841814       -3.8354026516
Pt              -0.0036489573       -3.8369687070       -5.7815312185
Pt              -1.9703942747       -5.8302739724       -1.9496381682
Pt              -1.9832607620       -3.8782213002       -0.0076553050
Pt              -0.0050257098       -5.9132661421       -0.0056924121
Pt              -0.0054224112       -3.8822224580       -1.9674136753
Pt              -1.9461109719       -5.8264081531        1.9700127762
Pt              -2.1136976742       -4.0473226440        4.0670257989
Pt               0.0093736789       -5.7906022706        3.8471903679
Pt               0.0018244225       -3.8777646973        1.9689904456
Pt               0.0081866059       -3.8318045720        5.7993858359
Pt              -1.9583571515       -1.9626719333       -5.8249812220
Pt              -1.9744840354       -0.0130333927       -3.8656109976
Pt              -0.0184847289       -1.9759255245       -3.8606659439
Pt              -0.0064792308       -0.0062395025       -5.9064794695
Pt              -2.0848811631       -2.0696362193       -2.0297803355
Pt              -1.9740595433       -0.0077084591       -0.0049702622
Pt              -0.0167266443       -1.9699936023       -0.0094000858
Pt              -0.0072063771       -0.0042986632       -1.9585810121
Pt              -2.0436787607       -2.0383828776        2.0293856217
Pt              -1.9720904609       -0.0048917708        3.8771590851
Pt              -0.0032955415       -1.9742855131        3.8769086791
Pt              -0.0081563550       -0.0116217713        1.9589572160
Pt              -1.9542616435       -1.9506825733        5.8425542647
Pt               0.0009637994       -0.0033755258        5.9137069260
Pt              -1.9456179245        1.9511539385       -5.8324667581
Pt              -2.1174562270        4.0534000167       -4.0466926515
Pt              -0.0022821761        1.9657077003       -3.8758326730
Pt               0.0046750053        3.8434425096       -5.7878134040
Pt              -2.0346900730        2.0276205678       -2.0315833915
Pt              -1.9699788870        3.8751653489        0.0005451532
Pt              -0.0022710746        1.9560018751        0.0005306511
Pt              -0.0015705579        3.8762651354       -1.9693520532
Pt              -2.0326439864        2.0237532819        2.0297811479
Pt              -2.1225143976        4.0503379024        4.0485766931
Pt              -0.0005771467        1.9642080297        3.8727400925
Pt              -0.0016356832        3.8768865706        1.9686654503
Pt              -1.9466804964        1.9521500323        5.8333493057
Pt               0.0022188627        3.8402553103        5.7864495002
Pt               0.0030507313        5.7959832953       -3.8364935187
Pt              -1.9493834419        5.8395114686       -1.9483811759
Pt               0.0013107689        5.9174475017       -0.0002377779
Pt              -1.9472274218        5.8394555828        1.9495623143
Pt               0.0005799092        5.7912910564        3.8413891133
Pt               2.1187389947       -4.0439709171       -4.0453012498
Pt               1.9532120525       -5.8375587629       -1.9502557867
Pt               1.9665002041       -3.8793424225       -0.0002792192
Pt               3.8426680774       -5.7893272012        0.0006353559
Pt               4.0513988931       -4.0492978370       -2.1208078823
Pt               1.9514563866       -5.8345842133        1.9531431817
Pt               2.1251416520       -4.0443797045        4.0527755307
Pt               4.0502728005       -4.0485355813        2.1217239794
Pt               1.9469689205       -1.9488065216       -5.8291691380
Pt               1.9631723342       -0.0032898857       -3.8731560035
Pt               4.0513547352       -2.1192284859       -4.0466088916
Pt               3.8384586491        0.0025919932       -5.7846140400
Pt               2.0273431361       -2.0324076481       -2.0292017799
Pt               1.9578317777       -0.0054445246       -0.0001076940
Pt               3.8785719624       -1.9708001246       -0.0023558747
Pt               3.8778661306       -0.0001460015       -1.9696409823
Pt               2.0280852442       -2.0337430188        2.0271615310
Pt               1.9679878876       -0.0063357485        3.8727417162
Pt               4.0553921310       -2.1223015279        4.0510138176
Pt               3.8789715053       -0.0032665879        1.9668300271
Pt               1.9576756162       -1.9485721210        5.8389386049
Pt               3.8427592122        0.0027308910        5.7874130575
Pt               1.9500126934        1.9494344544       -5.8301447982
Pt               2.1220532281        4.0518538202       -4.0474109629
Pt               4.0535760537        2.1244404205       -4.0475257615
Pt               2.0319632497        2.0313108908       -2.0328499736
Pt               1.9683972530        3.8761940492       -0.0014008071
Pt               3.8774648988        1.9685842034       -0.0013899135
Pt               4.0522788308        4.0537260932       -2.1228760036
Pt               2.0283242296        2.0259746080        2.0268238294
Pt               2.1200845593        4.0470423655        4.0452002663
Pt               4.0465110599        2.1218433976        4.0458191854
Pt               4.0501255622        4.0517904986        2.1205473294
Pt               1.9474424519        1.9461086960        5.8328298754
Pt               1.9518429523        5.8394960471       -1.9490067044
Pt               3.8409020906        5.7910714839       -0.0005291249
Pt               1.9501665154        5.8358735572        1.9489121625
Pt               5.7922349100       -3.8420046574        0.0014165656
Pt               5.7928744330        0.0016366810       -3.8396279653
Pt               5.8395163735       -1.9505625568       -1.9496913163
Pt               5.9186068523        0.0010237624       -0.0009093011
Pt               5.8395064039       -1.9508279312        1.9491756930
Pt               5.7917056445        0.0004506923        3.8406011182
Pt               5.8377285141        1.9526590090       -1.9495857705
Pt               5.7885711707        3.8470367519       -0.0011065549
Pt               5.8342226951        1.9521337817        1.9482909285
H               -5.7070147829       -4.7273454105       -1.6102979226
End final coordinates



     Writing all to output data dir ./out/calc.save/ :
     XML data file, charge density, pseudopotentials, collected wavefunctions
 
     init_run     :     96.95s CPU    101.54s WALL (       1 calls)
     electrons    : *********s CPU *********s WALL (      24 calls)
     update_pot   :    166.46s CPU    185.79s WALL (      22 calls)
     forces       :   1090.42s CPU   1156.47s WALL (      24 calls)

     Called by init_run:
     wfcinit      :     74.59s CPU     77.63s WALL (       1 calls)
     wfcinit:atom :      0.31s CPU      0.44s WALL (       2 calls)
     wfcinit:wfcr :     72.44s CPU     75.11s WALL (       2 calls)
     potinit      :     16.25s CPU     20.71s WALL (       2 calls)
     hinit0       :      5.20s CPU      5.28s WALL (       1 calls)

     Called by electrons:
     c_bands      : *********s CPU *********s WALL (     359 calls)
     sum_band     :  11571.08s CPU  12014.77s WALL (     359 calls)
     v_of_rho     :   2576.87s CPU   2884.83s WALL (     366 calls)
     v_h          :     38.41s CPU     41.41s WALL (     366 calls)
     v_xc         :   2705.77s CPU   3032.30s WALL (     390 calls)
     newd         :   1180.33s CPU   1325.59s WALL (     366 calls)
     mix_rho      :   1314.91s CPU   1436.40s WALL (     359 calls)

     Called by c_bands:
     init_us_2    :    465.35s CPU    469.88s WALL (    1486 calls)
     rcgdiagg     : 985593.61s CPU 996319.48s WALL (     781 calls)
     wfcrot       :  19795.05s CPU  20485.57s WALL (     701 calls)

     Called by sum_band:
     sum_band:wei :      1.16s CPU      1.17s WALL (     359 calls)
     sum_band:loo :   9913.37s CPU  10219.11s WALL (     359 calls)
     sum_band:buf :     79.71s CPU     80.62s WALL (     718 calls)
     sum_band:ini :    224.00s CPU    226.04s WALL (     718 calls)
     sum_band:cal :   2416.86s CPU   2430.78s WALL (     718 calls)
     sum_band:bec :      7.18s CPU      7.23s WALL (     718 calls)
     addusdens    :   1599.87s CPU   1729.31s WALL (     359 calls)
                                        0.00s GPU  (     359 calls)
     addusd:skk   :     63.39s CPU    112.32s WALL (     718 calls)
                                        0.00s GPU  (     718 calls)

     Called by *cgdiagg:
     h_psi        : 409643.05s CPU 416502.22s WALL ( 2465606 calls)
     s_psi        : 329844.26s CPU 332303.39s WALL ( 4930511 calls)

     Called by h_psi:
     h_psi:calbec : 172789.27s CPU 174171.47s WALL ( 2465606 calls)
     vloc_psi     :  68118.84s CPU  72350.79s WALL ( 2465606 calls)
     add_vuspsi   : 168485.88s CPU 169737.65s WALL ( 2465606 calls)
     hs_1psi      : 557241.14s CPU 564701.29s WALL ( 2464905 calls)
     s_1psi       : 336296.90s CPU 338873.70s WALL ( 2464905 calls)

     General routines
     calbec       : 346084.17s CPU 348833.47s WALL ( 4931421 calls)
     fft          :   1534.49s CPU   1757.83s WALL (   26437 calls)
     ffts         :    631.00s CPU    744.39s WALL (   40205 calls)
     fftw         :  38967.06s CPU  43092.07s WALL ( 6113326 calls)
     interpolate  :     64.29s CPU     74.07s WALL (     732 calls)
 
     Parallel routines
 
     PWSCF        :  11d20h22m CPU  11d23h55m WALL

 
   This run was terminated on:  16:24:30  26May2025            

=------------------------------------------------------------------------------=
   JOB DONE.
=------------------------------------------------------------------------------=
