
     Program PWSCF v.7.3.1 starts on 28Apr2025 at 11: 1:23 

     This program is part of the open-source Quantum ESPRESSO suite
     for quantum simulation of materials; please cite
         "P. Giannozzi et al., J. Phys.:Condens. Matter 21 395502 (2009);
         "P. Giannozzi et al., J. Phys.:Condens. Matter 29 465901 (2017);
         "P. Giannozzi et al., J. Chem. Phys. 152 154105 (2020);
          URL http://www.quantum-espresso.org", 
     in publications or presentations arising from this work. More details at
     http://www.quantum-espresso.org/quote

     Parallel version (MPI), running on    36 processors

     MPI processes distributed on     1 nodes
     150539 MiB available memory on the printing compute node when the environment starts
 
     Reading input from espresso.pwi
Warning: card   &CELL ignored
Warning: card      CELL_DOFREE = 'IBRAV' ignored
Warning: card / ignored

     Current dimensions of program PWSCF are:
     Max number of different atomic species (ntypx) = 10
     Max number of k-points (npk) =  40000
     Max angular momentum in pseudopotentials (lmaxx) =  4

     IMPORTANT: XC functional enforced from input :
     Exchange-correlation= RVV10
                           (   1   4  13   4  26   0   0)
     Any further DFT definition will be discarded
     Please, verify this is what you really want


     gamma-point specific algorithms are used
     Message from routine setup:
     using ibrav=0 with symmetry is DISCOURAGED, use correct ibrav instead
 
     R & G space division:  proc/nbgrp/npool/nimage =      36
     Subspace diagonalization in iterative solution of the eigenvalue problem:
     one sub-group per band group will be used
     scalapack distributed-memory algorithm (size of sub-group:  6*  6 procs)

 
     Parallelization info
     --------------------
     sticks:   dense  smooth     PW     G-vecs:    dense   smooth      PW
     Min        2366    1183    295               520102   183878   22972
     Max        2368    1188    298               520116   183884   22980
     Sum       85225   42641  10669             18723953  6619737  827137
 
     Using Slab Decomposition
 

     Title: 
     calc                                                                       


     bravais-lattice index     =            0
     lattice parameter (alat)  =      47.2432  a.u.
     unit-cell volume          =  105442.7265 (a.u.)^3
     number of atoms/cell      =          117
     number of atomic types    =            2
     number of electrons       =      1857.00
     number of Kohn-Sham states=         1115
     kinetic-energy cutoff     =      60.0000  Ry
     charge density cutoff     =     480.0000  Ry
     scf convergence threshold =      1.0E-06
     mixing beta               =       0.1000
     number of iterations used =            8  local-TF  mixing
     energy convergence thresh.=      1.0E-04
     force convergence thresh. =      1.0E-03
     Exchange-correlation= RVV10
                           (   1   4  13   4  26   0   0)
     nstep                     =        10000


     celldm(1)=  47.243153  celldm(2)=   0.000000  celldm(3)=   0.000000
     celldm(4)=   0.000000  celldm(5)=   0.000000  celldm(6)=   0.000000

     crystal axes: (cart. coord. in units of alat)
               a(1) = (   1.000000   0.000000   0.000000 )  
               a(2) = (   0.000000   1.000000   0.000000 )  
               a(3) = (   0.000000   0.000000   1.000000 )  

     reciprocal axes: (cart. coord. in units 2 pi/alat)
               b(1) = (  1.000000  0.000000  0.000000 )  
               b(2) = (  0.000000  1.000000  0.000000 )  
               b(3) = (  0.000000  0.000000  1.000000 )  


     PseudoPot. # 1 for Pt read from file:
     /home/james/work/espresso/SSSP_1.3.0_PBE_efficiency/pt_pbe_v1.4.uspp.F.UPF
     MD5 check sum: f09d6de1a584b5a045c4fc126da2d0c4
     Pseudo is Ultrasoft + core correction, Zval = 16.0
     Generated by new atomic code, or converted to UPF format
     Using radial grid of  985 points,  6 beta functions with: 
                l(1) =   0
                l(2) =   0
                l(3) =   1
                l(4) =   1
                l(5) =   2
                l(6) =   2
     Q(r) pseudized with  8 coefficients,  rinner =    1.300   1.300   1.300
                                                       1.300   1.300

     PseudoPot. # 2 for H  read from file:
     /home/james/work/espresso/SSSP_1.3.0_PBE_efficiency/H.pbe-rrkjus_psl.1.0.0.UPF
     MD5 check sum: f52b6d4d1c606e5624b1dc7b2218f220
     Pseudo is Ultrasoft, Zval =  1.0
     Generated using "atomic" code by A. Dal Corso  v.5.1
     Using radial grid of  929 points,  2 beta functions with: 
                l(1) =   0
                l(2) =   0
     Q(r) pseudized with 0 coefficients 


     atomic species   valence    mass     pseudopotential
     Pt               16.00   195.08400     Pt( 1.00)
     H                 1.00     1.00800     H ( 1.00)

     Starting magnetic structure 
     atomic species   magnetization
     Pt              0.010
     H               0.020

      2 Sym. Ops. (no inversion) found


                                    s                        frac. trans.

      isym =  1     identity                                     

 cryst.   s( 1) = (     1          0          0      )
                  (     0          1          0      )
                  (     0          0          1      )

 cart.    s( 1) = (  1.0000000  0.0000000  0.0000000 )
                  (  0.0000000  1.0000000  0.0000000 )
                  (  0.0000000  0.0000000  1.0000000 )


      isym =  2     inv. 180 deg rotation - cart. axis [1,-1,0]  

 cryst.   s( 2) = (     0          1          0      )
                  (     1          0          0      )
                  (     0          0          1      )

 cart.    s( 2) = (  0.0000000  1.0000000  0.0000000 )
                  (  1.0000000  0.0000000  0.0000000 )
                  (  0.0000000  0.0000000  1.0000000 )


   Cartesian axes

     site n.     atom                  positions (alat units)
         1        Pt     tau(   1) = (  -0.2317675  -0.1538076   0.0000000  )
         2        Pt     tau(   2) = (  -0.1538076  -0.2317675   0.0000000  )
         3        Pt     tau(   3) = (  -0.1617552  -0.1617552  -0.0847262  )
         4        Pt     tau(   4) = (  -0.1617552  -0.1617552   0.0847262  )
         5        Pt     tau(   5) = (  -0.2317675   0.0000000  -0.1538076  )
         6        Pt     tau(   6) = (  -0.1617552  -0.0847262  -0.1617552  )
         7        Pt     tau(   7) = (  -0.1538076   0.0000000  -0.2317675  )
         8        Pt     tau(   8) = (  -0.2338884  -0.0780549  -0.0780549  )
         9        Pt     tau(   9) = (  -0.2370085   0.0000000   0.0000000  )
        10        Pt     tau(  10) = (  -0.1554443  -0.0788784   0.0000000  )
        11        Pt     tau(  11) = (  -0.1554443   0.0000000  -0.0788784  )
        12        Pt     tau(  12) = (  -0.2338884  -0.0780549   0.0780549  )
        13        Pt     tau(  13) = (  -0.2317675   0.0000000   0.1538076  )
        14        Pt     tau(  14) = (  -0.1617552  -0.0847262   0.1617552  )
        15        Pt     tau(  15) = (  -0.1554443   0.0000000   0.0788784  )
        16        Pt     tau(  16) = (  -0.1538076   0.0000000   0.2317675  )
        17        Pt     tau(  17) = (  -0.1617552   0.0847262  -0.1617552  )
        18        Pt     tau(  18) = (  -0.2338884   0.0780549  -0.0780549  )
        19        Pt     tau(  19) = (  -0.2317675   0.1538076   0.0000000  )
        20        Pt     tau(  20) = (  -0.1554443   0.0788784   0.0000000  )
        21        Pt     tau(  21) = (  -0.1617552   0.1617552  -0.0847262  )
        22        Pt     tau(  22) = (  -0.2338884   0.0780549   0.0780549  )
        23        Pt     tau(  23) = (  -0.1617552   0.0847262   0.1617552  )
        24        Pt     tau(  24) = (  -0.1617552   0.1617552   0.0847262  )
        25        Pt     tau(  25) = (  -0.1538076   0.2317675   0.0000000  )
        26        Pt     tau(  26) = (  -0.0847262  -0.1617552  -0.1617552  )
        27        Pt     tau(  27) = (   0.0000000  -0.2317675  -0.1538076  )
        28        Pt     tau(  28) = (   0.0000000  -0.1538076  -0.2317675  )
        29        Pt     tau(  29) = (  -0.0780549  -0.2338884  -0.0780549  )
        30        Pt     tau(  30) = (  -0.0788784  -0.1554443   0.0000000  )
        31        Pt     tau(  31) = (   0.0000000  -0.2370085   0.0000000  )
        32        Pt     tau(  32) = (   0.0000000  -0.1554443  -0.0788784  )
        33        Pt     tau(  33) = (  -0.0780549  -0.2338884   0.0780549  )
        34        Pt     tau(  34) = (  -0.0847262  -0.1617552   0.1617552  )
        35        Pt     tau(  35) = (   0.0000000  -0.2317675   0.1538076  )
        36        Pt     tau(  36) = (   0.0000000  -0.1554443   0.0788784  )
        37        Pt     tau(  37) = (   0.0000000  -0.1538076   0.2317675  )
        38        Pt     tau(  38) = (  -0.0780549  -0.0780549  -0.2338884  )
        39        Pt     tau(  39) = (  -0.0788784   0.0000000  -0.1554443  )
        40        Pt     tau(  40) = (   0.0000000  -0.0788784  -0.1554443  )
        41        Pt     tau(  41) = (   0.0000000   0.0000000  -0.2370085  )
        42        Pt     tau(  42) = (  -0.0808740  -0.0808740  -0.0808740  )
        43        Pt     tau(  43) = (  -0.0786873   0.0000000   0.0000000  )
        44        Pt     tau(  44) = (   0.0000000  -0.0786873   0.0000000  )
        45        Pt     tau(  45) = (   0.0000000   0.0000000  -0.0786873  )
        46        Pt     tau(  46) = (  -0.0808740  -0.0808740   0.0808740  )
        47        Pt     tau(  47) = (  -0.0788784   0.0000000   0.1554443  )
        48        Pt     tau(  48) = (   0.0000000  -0.0788784   0.1554443  )
        49        Pt     tau(  49) = (   0.0000000   0.0000000   0.0786873  )
        50        Pt     tau(  50) = (  -0.0780549  -0.0780549   0.2338884  )
        51        Pt     tau(  51) = (   0.0000000   0.0000000   0.2370085  )
        52        Pt     tau(  52) = (  -0.0780549   0.0780549  -0.2338884  )
        53        Pt     tau(  53) = (  -0.0847262   0.1617552  -0.1617552  )
        54        Pt     tau(  54) = (   0.0000000   0.0788784  -0.1554443  )
        55        Pt     tau(  55) = (   0.0000000   0.1538076  -0.2317675  )
        56        Pt     tau(  56) = (  -0.0808740   0.0808740  -0.0808740  )
        57        Pt     tau(  57) = (  -0.0788784   0.1554443   0.0000000  )
        58        Pt     tau(  58) = (   0.0000000   0.0786873   0.0000000  )
        59        Pt     tau(  59) = (   0.0000000   0.1554443  -0.0788784  )
        60        Pt     tau(  60) = (  -0.0808740   0.0808740   0.0808740  )
        61        Pt     tau(  61) = (  -0.0847262   0.1617552   0.1617552  )
        62        Pt     tau(  62) = (   0.0000000   0.0788784   0.1554443  )
        63        Pt     tau(  63) = (   0.0000000   0.1554443   0.0788784  )
        64        Pt     tau(  64) = (  -0.0780549   0.0780549   0.2338884  )
        65        Pt     tau(  65) = (   0.0000000   0.1538076   0.2317675  )
        66        Pt     tau(  66) = (   0.0000000   0.2317675  -0.1538076  )
        67        Pt     tau(  67) = (  -0.0780549   0.2338884  -0.0780549  )
        68        Pt     tau(  68) = (   0.0000000   0.2370085   0.0000000  )
        69        Pt     tau(  69) = (  -0.0780549   0.2338884   0.0780549  )
        70        Pt     tau(  70) = (   0.0000000   0.2317675   0.1538076  )
        71        Pt     tau(  71) = (   0.0847262  -0.1617552  -0.1617552  )
        72        Pt     tau(  72) = (   0.0780549  -0.2338884  -0.0780549  )
        73        Pt     tau(  73) = (   0.0788784  -0.1554443   0.0000000  )
        74        Pt     tau(  74) = (   0.1538076  -0.2317675   0.0000000  )
        75        Pt     tau(  75) = (   0.1617552  -0.1617552  -0.0847262  )
        76        Pt     tau(  76) = (   0.0780549  -0.2338884   0.0780549  )
        77        Pt     tau(  77) = (   0.0847262  -0.1617552   0.1617552  )
        78        Pt     tau(  78) = (   0.1617552  -0.1617552   0.0847262  )
        79        Pt     tau(  79) = (   0.0780549  -0.0780549  -0.2338884  )
        80        Pt     tau(  80) = (   0.0788784   0.0000000  -0.1554443  )
        81        Pt     tau(  81) = (   0.1617552  -0.0847262  -0.1617552  )
        82        Pt     tau(  82) = (   0.1538076   0.0000000  -0.2317675  )
        83        Pt     tau(  83) = (   0.0808740  -0.0808740  -0.0808740  )
        84        Pt     tau(  84) = (   0.0786873   0.0000000   0.0000000  )
        85        Pt     tau(  85) = (   0.1554443  -0.0788784   0.0000000  )
        86        Pt     tau(  86) = (   0.1554443   0.0000000  -0.0788784  )
        87        Pt     tau(  87) = (   0.0808740  -0.0808740   0.0808740  )
        88        Pt     tau(  88) = (   0.0788784   0.0000000   0.1554443  )
        89        Pt     tau(  89) = (   0.1617552  -0.0847262   0.1617552  )
        90        Pt     tau(  90) = (   0.1554443   0.0000000   0.0788784  )
        91        Pt     tau(  91) = (   0.0780549  -0.0780549   0.2338884  )
        92        Pt     tau(  92) = (   0.1538076   0.0000000   0.2317675  )
        93        Pt     tau(  93) = (   0.0780549   0.0780549  -0.2338884  )
        94        Pt     tau(  94) = (   0.0847262   0.1617552  -0.1617552  )
        95        Pt     tau(  95) = (   0.1617552   0.0847262  -0.1617552  )
        96        Pt     tau(  96) = (   0.0808740   0.0808740  -0.0808740  )
        97        Pt     tau(  97) = (   0.0788784   0.1554443   0.0000000  )
        98        Pt     tau(  98) = (   0.1554443   0.0788784   0.0000000  )
        99        Pt     tau(  99) = (   0.1617552   0.1617552  -0.0847262  )
       100        Pt     tau( 100) = (   0.0808740   0.0808740   0.0808740  )
       101        Pt     tau( 101) = (   0.0847262   0.1617552   0.1617552  )
       102        Pt     tau( 102) = (   0.1617552   0.0847262   0.1617552  )
       103        Pt     tau( 103) = (   0.1617552   0.1617552   0.0847262  )
       104        Pt     tau( 104) = (   0.0780549   0.0780549   0.2338884  )
       105        Pt     tau( 105) = (   0.0780549   0.2338884  -0.0780549  )
       106        Pt     tau( 106) = (   0.1538076   0.2317675   0.0000000  )
       107        Pt     tau( 107) = (   0.0780549   0.2338884   0.0780549  )
       108        Pt     tau( 108) = (   0.2317675  -0.1538076   0.0000000  )
       109        Pt     tau( 109) = (   0.2317675   0.0000000  -0.1538076  )
       110        Pt     tau( 110) = (   0.2338884  -0.0780549  -0.0780549  )
       111        Pt     tau( 111) = (   0.2370085   0.0000000   0.0000000  )
       112        Pt     tau( 112) = (   0.2338884  -0.0780549   0.0780549  )
       113        Pt     tau( 113) = (   0.2317675   0.0000000   0.1538076  )
       114        Pt     tau( 114) = (   0.2338884   0.0780549  -0.0780549  )
       115        Pt     tau( 115) = (   0.2317675   0.1538076   0.0000000  )
       116        Pt     tau( 116) = (   0.2338884   0.0780549   0.0780549  )
       117        H      tau( 117) = (  -0.2052477  -0.2052477  -0.1221536  )

   Crystallographic axes

     site n.     atom                  positions (cryst. coord.)
         1        Pt     tau(   1) = ( -0.2317675 -0.1538076  0.0000000  )
         2        Pt     tau(   2) = ( -0.1538076 -0.2317675  0.0000000  )
         3        Pt     tau(   3) = ( -0.1617552 -0.1617552 -0.0847262  )
         4        Pt     tau(   4) = ( -0.1617552 -0.1617552  0.0847262  )
         5        Pt     tau(   5) = ( -0.2317675  0.0000000 -0.1538076  )
         6        Pt     tau(   6) = ( -0.1617552 -0.0847262 -0.1617552  )
         7        Pt     tau(   7) = ( -0.1538076  0.0000000 -0.2317675  )
         8        Pt     tau(   8) = ( -0.2338884 -0.0780549 -0.0780549  )
         9        Pt     tau(   9) = ( -0.2370085  0.0000000  0.0000000  )
        10        Pt     tau(  10) = ( -0.1554443 -0.0788784  0.0000000  )
        11        Pt     tau(  11) = ( -0.1554443  0.0000000 -0.0788784  )
        12        Pt     tau(  12) = ( -0.2338884 -0.0780549  0.0780549  )
        13        Pt     tau(  13) = ( -0.2317675  0.0000000  0.1538076  )
        14        Pt     tau(  14) = ( -0.1617552 -0.0847262  0.1617552  )
        15        Pt     tau(  15) = ( -0.1554443  0.0000000  0.0788784  )
        16        Pt     tau(  16) = ( -0.1538076  0.0000000  0.2317675  )
        17        Pt     tau(  17) = ( -0.1617552  0.0847262 -0.1617552  )
        18        Pt     tau(  18) = ( -0.2338884  0.0780549 -0.0780549  )
        19        Pt     tau(  19) = ( -0.2317675  0.1538076  0.0000000  )
        20        Pt     tau(  20) = ( -0.1554443  0.0788784  0.0000000  )
        21        Pt     tau(  21) = ( -0.1617552  0.1617552 -0.0847262  )
        22        Pt     tau(  22) = ( -0.2338884  0.0780549  0.0780549  )
        23        Pt     tau(  23) = ( -0.1617552  0.0847262  0.1617552  )
        24        Pt     tau(  24) = ( -0.1617552  0.1617552  0.0847262  )
        25        Pt     tau(  25) = ( -0.1538076  0.2317675  0.0000000  )
        26        Pt     tau(  26) = ( -0.0847262 -0.1617552 -0.1617552  )
        27        Pt     tau(  27) = (  0.0000000 -0.2317675 -0.1538076  )
        28        Pt     tau(  28) = (  0.0000000 -0.1538076 -0.2317675  )
        29        Pt     tau(  29) = ( -0.0780549 -0.2338884 -0.0780549  )
        30        Pt     tau(  30) = ( -0.0788784 -0.1554443  0.0000000  )
        31        Pt     tau(  31) = (  0.0000000 -0.2370085  0.0000000  )
        32        Pt     tau(  32) = (  0.0000000 -0.1554443 -0.0788784  )
        33        Pt     tau(  33) = ( -0.0780549 -0.2338884  0.0780549  )
        34        Pt     tau(  34) = ( -0.0847262 -0.1617552  0.1617552  )
        35        Pt     tau(  35) = (  0.0000000 -0.2317675  0.1538076  )
        36        Pt     tau(  36) = (  0.0000000 -0.1554443  0.0788784  )
        37        Pt     tau(  37) = (  0.0000000 -0.1538076  0.2317675  )
        38        Pt     tau(  38) = ( -0.0780549 -0.0780549 -0.2338884  )
        39        Pt     tau(  39) = ( -0.0788784  0.0000000 -0.1554443  )
        40        Pt     tau(  40) = (  0.0000000 -0.0788784 -0.1554443  )
        41        Pt     tau(  41) = (  0.0000000  0.0000000 -0.2370085  )
        42        Pt     tau(  42) = ( -0.0808740 -0.0808740 -0.0808740  )
        43        Pt     tau(  43) = ( -0.0786873  0.0000000  0.0000000  )
        44        Pt     tau(  44) = (  0.0000000 -0.0786873  0.0000000  )
        45        Pt     tau(  45) = (  0.0000000  0.0000000 -0.0786873  )
        46        Pt     tau(  46) = ( -0.0808740 -0.0808740  0.0808740  )
        47        Pt     tau(  47) = ( -0.0788784  0.0000000  0.1554443  )
        48        Pt     tau(  48) = (  0.0000000 -0.0788784  0.1554443  )
        49        Pt     tau(  49) = (  0.0000000  0.0000000  0.0786873  )
        50        Pt     tau(  50) = ( -0.0780549 -0.0780549  0.2338884  )
        51        Pt     tau(  51) = (  0.0000000  0.0000000  0.2370085  )
        52        Pt     tau(  52) = ( -0.0780549  0.0780549 -0.2338884  )
        53        Pt     tau(  53) = ( -0.0847262  0.1617552 -0.1617552  )
        54        Pt     tau(  54) = (  0.0000000  0.0788784 -0.1554443  )
        55        Pt     tau(  55) = (  0.0000000  0.1538076 -0.2317675  )
        56        Pt     tau(  56) = ( -0.0808740  0.0808740 -0.0808740  )
        57        Pt     tau(  57) = ( -0.0788784  0.1554443  0.0000000  )
        58        Pt     tau(  58) = (  0.0000000  0.0786873  0.0000000  )
        59        Pt     tau(  59) = (  0.0000000  0.1554443 -0.0788784  )
        60        Pt     tau(  60) = ( -0.0808740  0.0808740  0.0808740  )
        61        Pt     tau(  61) = ( -0.0847262  0.1617552  0.1617552  )
        62        Pt     tau(  62) = (  0.0000000  0.0788784  0.1554443  )
        63        Pt     tau(  63) = (  0.0000000  0.1554443  0.0788784  )
        64        Pt     tau(  64) = ( -0.0780549  0.0780549  0.2338884  )
        65        Pt     tau(  65) = (  0.0000000  0.1538076  0.2317675  )
        66        Pt     tau(  66) = (  0.0000000  0.2317675 -0.1538076  )
        67        Pt     tau(  67) = ( -0.0780549  0.2338884 -0.0780549  )
        68        Pt     tau(  68) = (  0.0000000  0.2370085  0.0000000  )
        69        Pt     tau(  69) = ( -0.0780549  0.2338884  0.0780549  )
        70        Pt     tau(  70) = (  0.0000000  0.2317675  0.1538076  )
        71        Pt     tau(  71) = (  0.0847262 -0.1617552 -0.1617552  )
        72        Pt     tau(  72) = (  0.0780549 -0.2338884 -0.0780549  )
        73        Pt     tau(  73) = (  0.0788784 -0.1554443  0.0000000  )
        74        Pt     tau(  74) = (  0.1538076 -0.2317675  0.0000000  )
        75        Pt     tau(  75) = (  0.1617552 -0.1617552 -0.0847262  )
        76        Pt     tau(  76) = (  0.0780549 -0.2338884  0.0780549  )
        77        Pt     tau(  77) = (  0.0847262 -0.1617552  0.1617552  )
        78        Pt     tau(  78) = (  0.1617552 -0.1617552  0.0847262  )
        79        Pt     tau(  79) = (  0.0780549 -0.0780549 -0.2338884  )
        80        Pt     tau(  80) = (  0.0788784  0.0000000 -0.1554443  )
        81        Pt     tau(  81) = (  0.1617552 -0.0847262 -0.1617552  )
        82        Pt     tau(  82) = (  0.1538076  0.0000000 -0.2317675  )
        83        Pt     tau(  83) = (  0.0808740 -0.0808740 -0.0808740  )
        84        Pt     tau(  84) = (  0.0786873  0.0000000  0.0000000  )
        85        Pt     tau(  85) = (  0.1554443 -0.0788784  0.0000000  )
        86        Pt     tau(  86) = (  0.1554443  0.0000000 -0.0788784  )
        87        Pt     tau(  87) = (  0.0808740 -0.0808740  0.0808740  )
        88        Pt     tau(  88) = (  0.0788784  0.0000000  0.1554443  )
        89        Pt     tau(  89) = (  0.1617552 -0.0847262  0.1617552  )
        90        Pt     tau(  90) = (  0.1554443  0.0000000  0.0788784  )
        91        Pt     tau(  91) = (  0.0780549 -0.0780549  0.2338884  )
        92        Pt     tau(  92) = (  0.1538076  0.0000000  0.2317675  )
        93        Pt     tau(  93) = (  0.0780549  0.0780549 -0.2338884  )
        94        Pt     tau(  94) = (  0.0847262  0.1617552 -0.1617552  )
        95        Pt     tau(  95) = (  0.1617552  0.0847262 -0.1617552  )
        96        Pt     tau(  96) = (  0.0808740  0.0808740 -0.0808740  )
        97        Pt     tau(  97) = (  0.0788784  0.1554443  0.0000000  )
        98        Pt     tau(  98) = (  0.1554443  0.0788784  0.0000000  )
        99        Pt     tau(  99) = (  0.1617552  0.1617552 -0.0847262  )
       100        Pt     tau( 100) = (  0.0808740  0.0808740  0.0808740  )
       101        Pt     tau( 101) = (  0.0847262  0.1617552  0.1617552  )
       102        Pt     tau( 102) = (  0.1617552  0.0847262  0.1617552  )
       103        Pt     tau( 103) = (  0.1617552  0.1617552  0.0847262  )
       104        Pt     tau( 104) = (  0.0780549  0.0780549  0.2338884  )
       105        Pt     tau( 105) = (  0.0780549  0.2338884 -0.0780549  )
       106        Pt     tau( 106) = (  0.1538076  0.2317675  0.0000000  )
       107        Pt     tau( 107) = (  0.0780549  0.2338884  0.0780549  )
       108        Pt     tau( 108) = (  0.2317675 -0.1538076  0.0000000  )
       109        Pt     tau( 109) = (  0.2317675  0.0000000 -0.1538076  )
       110        Pt     tau( 110) = (  0.2338884 -0.0780549 -0.0780549  )
       111        Pt     tau( 111) = (  0.2370085  0.0000000  0.0000000  )
       112        Pt     tau( 112) = (  0.2338884 -0.0780549  0.0780549  )
       113        Pt     tau( 113) = (  0.2317675  0.0000000  0.1538076  )
       114        Pt     tau( 114) = (  0.2338884  0.0780549 -0.0780549  )
       115        Pt     tau( 115) = (  0.2317675  0.1538076  0.0000000  )
       116        Pt     tau( 116) = (  0.2338884  0.0780549  0.0780549  )
       117        H      tau( 117) = ( -0.2052477 -0.2052477 -0.1221536  )

     number of k points=     1  Gaussian smearing, width (Ry)=  0.0100
                       cart. coord. in units 2pi/alat
        k(    1) = (   0.0000000   0.0000000   0.0000000), wk =   1.0000000

                       cryst. coord.
        k(    1) = (   0.0000000   0.0000000   0.0000000), wk =   1.0000000

     Dense  grid:  9361977 G-vectors     FFT dimensions: ( 360, 360, 360)

     Smooth grid:  3309869 G-vectors     FFT dimensions: ( 240, 240, 240)

     Dynamical RAM for                 wfc:     195.54 MB

     Dynamical RAM for     wfc (w. buffer):     586.61 MB

     Dynamical RAM for           str. fact:       7.94 MB

     Dynamical RAM for           local pot:       0.00 MB

     Dynamical RAM for          nlocal pot:     366.52 MB

     Dynamical RAM for                qrad:       3.52 MB

     Dynamical RAM for          rho,v,vnew:      83.14 MB

     Dynamical RAM for               rhoin:      27.71 MB

     Dynamical RAM for            rho*nmix:     126.98 MB

     Dynamical RAM for           G-vectors:      15.58 MB

     Dynamical RAM for          h,s,v(r/c):       0.78 MB

     Dynamical RAM for          <psi|beta>:      17.78 MB

     Dynamical RAM for      wfcinit/wfcrot:     419.54 MB

     Dynamical RAM for           addusdens:    1202.36 MB

     Dynamical RAM for          addusforce:    2115.94 MB

     Estimated static dynamical RAM per process >       1.14 GB

     Estimated max dynamical RAM per process >       3.33 GB

     Estimated total dynamical RAM >     119.71 GB

     Atomic positions and unit cell read from directory:
     ./out/calc.save/
     Atomic positions from file used, from input discarded
 
     Generating pointlists ...
     new r_m :   0.0280 (alat units)  1.3214 (a.u.) for type    1
     new r_m :   0.0280 (alat units)  1.3214 (a.u.) for type    2

     The initial density is read from file :
     ./out/calc.save/charge-density


     negative rho (up, down):  1.021E+01 1.020E+01


---------------------------------------------------------------------------------
Carrying out rVV10 run using the following parameters:
Nqs =      20    Nr_points =    1024   r_max =   100.000
b_value =  6.30000    beta =  0.00901
     q_mesh =  0.00010000  0.00030000  0.00058939  0.00100810
               0.00161396  0.00249058  0.00375900  0.00559430
               0.00824984  0.01209221  0.01765183  0.02569619
               0.03733578  0.05417739  0.07854596  0.11380545
               0.16482331  0.23864234  0.34545298  0.50000000

Gradients computed in Reciprocal space

---------------------------------------------------------------------------------




     ----------------------------------------------------------------

     Non-local correlation energy =             18.769724838416685

     ----------------------------------------------------------------

     Cannot read wfcs: file not found
     Starting wfcs are 1393 randomized atomic wfcs

     total cpu time spent up to now is      112.6 secs

     Self-consistent Calculation

     iteration #  1     ecut=    60.00 Ry     beta= 0.10
     CG style diagonalization

---- Real-time Memory Report at c_bands before calling an iterative solver
             0 MiB given to the printing process from OS
             0 MiB allocation reported by mallinfo(arena+hblkhd)
        104716 MiB available memory on the node where the printing process lives
------------------
     c_bands:  4 eigenvalues not converged
     c_bands:  5 eigenvalues not converged
     ethr =  1.00E-05,  avg # of iterations = 35.7

     negative rho (up, down):  1.120E+01 1.119E+01


     ----------------------------------------------------------------

     Non-local correlation energy =             18.697368189513117

     ----------------------------------------------------------------


     total cpu time spent up to now is    29336.7 secs

     total energy              =  -25278.61675848 Ry
     estimated scf accuracy    <   43517.21706307 Ry

     total magnetization       =     0.15 Bohr mag/cell
     absolute magnetization    =     0.24 Bohr mag/cell

     iteration #  2     ecut=    60.00 Ry     beta= 0.10
     CG style diagonalization

---- Real-time Memory Report at c_bands before calling an iterative solver
             0 MiB given to the printing process from OS
             0 MiB allocation reported by mallinfo(arena+hblkhd)
        101825 MiB available memory on the node where the printing process lives
------------------
     ethr =  1.00E-02,  avg # of iterations =  3.0

     negative rho (up, down):  1.741E+01 1.741E+01


     ----------------------------------------------------------------

     Non-local correlation energy =             18.419669254980771

     ----------------------------------------------------------------


     total cpu time spent up to now is    31259.4 secs

     total energy              =  -23816.07267625 Ry
     estimated scf accuracy    <   36522.77802537 Ry

     total magnetization       =     0.16 Bohr mag/cell
     absolute magnetization    =     0.48 Bohr mag/cell

     iteration #  3     ecut=    60.00 Ry     beta= 0.10
     CG style diagonalization

---- Real-time Memory Report at c_bands before calling an iterative solver
             0 MiB given to the printing process from OS
             0 MiB allocation reported by mallinfo(arena+hblkhd)
        101521 MiB available memory on the node where the printing process lives
------------------
     ethr =  1.00E-02,  avg # of iterations = 12.2

     negative rho (up, down):  1.811E+01 1.811E+01


     ----------------------------------------------------------------

     Non-local correlation energy =             18.414203023739347

     ----------------------------------------------------------------


     total cpu time spent up to now is    40809.2 secs

     total energy              =  -24507.32513083 Ry
     estimated scf accuracy    <    3119.53374540 Ry

     total magnetization       =     0.52 Bohr mag/cell
     absolute magnetization    =     4.99 Bohr mag/cell

     iteration #  4     ecut=    60.00 Ry     beta= 0.10
     CG style diagonalization

---- Real-time Memory Report at c_bands before calling an iterative solver
             0 MiB given to the printing process from OS
             0 MiB allocation reported by mallinfo(arena+hblkhd)
        101258 MiB available memory on the node where the printing process lives
------------------
     ethr =  1.00E-02,  avg # of iterations =  3.0

     negative rho (up, down):  2.161E+01 2.158E+01


     ----------------------------------------------------------------

     Non-local correlation energy =             18.501784082759865

     ----------------------------------------------------------------


     total cpu time spent up to now is    42767.9 secs

     total energy              =  -24246.65330419 Ry
     estimated scf accuracy    <    2330.13307407 Ry

     total magnetization       =     0.28 Bohr mag/cell
     absolute magnetization    =     6.44 Bohr mag/cell

     iteration #  5     ecut=    60.00 Ry     beta= 0.10
     CG style diagonalization

---- Real-time Memory Report at c_bands before calling an iterative solver
             0 MiB given to the printing process from OS
             0 MiB allocation reported by mallinfo(arena+hblkhd)
        101009 MiB available memory on the node where the printing process lives
------------------
     ethr =  1.00E-02,  avg # of iterations = 13.0

     negative rho (up, down):  1.847E+01 1.847E+01


     ----------------------------------------------------------------

     Non-local correlation energy =             18.460550274887819

     ----------------------------------------------------------------


     total cpu time spent up to now is    52992.0 secs

     total energy              =  -24386.44279242 Ry
     estimated scf accuracy    <    7368.83908880 Ry

     total magnetization       =    -0.50 Bohr mag/cell
     absolute magnetization    =     8.80 Bohr mag/cell

     iteration #  6     ecut=    60.00 Ry     beta= 0.10
     CG style diagonalization

---- Real-time Memory Report at c_bands before calling an iterative solver
             0 MiB given to the printing process from OS
             0 MiB allocation reported by mallinfo(arena+hblkhd)
        100806 MiB available memory on the node where the printing process lives
------------------
     ethr =  1.00E-02,  avg # of iterations =  4.5

     negative rho (up, down):  1.789E+01 1.788E+01


     ----------------------------------------------------------------

     Non-local correlation energy =             18.465311735583541

     ----------------------------------------------------------------


     total cpu time spent up to now is    56347.4 secs

     total energy              =  -24474.12692887 Ry
     estimated scf accuracy    <     888.97767976 Ry

     total magnetization       =     0.49 Bohr mag/cell
     absolute magnetization    =     8.80 Bohr mag/cell

     iteration #  7     ecut=    60.00 Ry     beta= 0.10
     CG style diagonalization

---- Real-time Memory Report at c_bands before calling an iterative solver
             0 MiB given to the printing process from OS
             0 MiB allocation reported by mallinfo(arena+hblkhd)
        100583 MiB available memory on the node where the printing process lives
------------------
     ethr =  1.00E-02,  avg # of iterations =  3.0

     negative rho (up, down):  1.695E+01 1.695E+01


     ----------------------------------------------------------------

     Non-local correlation energy =             18.483962893124506

     ----------------------------------------------------------------


     total cpu time spent up to now is    58289.3 secs

     total energy              =  -24447.01202074 Ry
     estimated scf accuracy    <     626.38283196 Ry

     total magnetization       =     4.08 Bohr mag/cell
     absolute magnetization    =     8.86 Bohr mag/cell

     iteration #  8     ecut=    60.00 Ry     beta= 0.10
     CG style diagonalization

---- Real-time Memory Report at c_bands before calling an iterative solver
             0 MiB given to the printing process from OS
             0 MiB allocation reported by mallinfo(arena+hblkhd)
        100346 MiB available memory on the node where the printing process lives
------------------
     ethr =  1.00E-02,  avg # of iterations =  3.2

     negative rho (up, down):  1.708E+01 1.708E+01


     ----------------------------------------------------------------

     Non-local correlation energy =             18.483300283946239

     ----------------------------------------------------------------


     total cpu time spent up to now is    60434.9 secs

     total energy              =  -24468.36648354 Ry
     estimated scf accuracy    <     108.59681116 Ry

     total magnetization       =    -0.02 Bohr mag/cell
     absolute magnetization    =    10.50 Bohr mag/cell

     iteration #  9     ecut=    60.00 Ry     beta= 0.10
     CG style diagonalization

---- Real-time Memory Report at c_bands before calling an iterative solver
             0 MiB given to the printing process from OS
             0 MiB allocation reported by mallinfo(arena+hblkhd)
        100109 MiB available memory on the node where the printing process lives
------------------
     ethr =  5.85E-03,  avg # of iterations =  6.6

     negative rho (up, down):  1.739E+01 1.739E+01


     ----------------------------------------------------------------

     Non-local correlation energy =             18.478736508342003

     ----------------------------------------------------------------


     total cpu time spent up to now is    64836.6 secs

     total energy              =  -24481.83145098 Ry
     estimated scf accuracy    <     186.13609706 Ry

     total magnetization       =     0.03 Bohr mag/cell
     absolute magnetization    =     4.51 Bohr mag/cell

     iteration # 10     ecut=    60.00 Ry     beta= 0.10
     CG style diagonalization

---- Real-time Memory Report at c_bands before calling an iterative solver
             0 MiB given to the printing process from OS
             0 MiB allocation reported by mallinfo(arena+hblkhd)
         99883 MiB available memory on the node where the printing process lives
------------------
     ethr =  5.85E-03,  avg # of iterations =  3.0

     negative rho (up, down):  1.742E+01 1.743E+01


     ----------------------------------------------------------------

     Non-local correlation energy =             18.478754769366557

     ----------------------------------------------------------------


     total cpu time spent up to now is    66748.5 secs

     total energy              =  -24483.76994189 Ry
     estimated scf accuracy    <     166.18773964 Ry

     total magnetization       =     0.06 Bohr mag/cell
     absolute magnetization    =     2.31 Bohr mag/cell

     iteration # 11     ecut=    60.00 Ry     beta= 0.10
     CG style diagonalization

---- Real-time Memory Report at c_bands before calling an iterative solver
             0 MiB given to the printing process from OS
             0 MiB allocation reported by mallinfo(arena+hblkhd)
         99903 MiB available memory on the node where the printing process lives
------------------
     ethr =  5.85E-03,  avg # of iterations =  3.0

     negative rho (up, down):  1.554E+01 1.555E+01


     ----------------------------------------------------------------

     Non-local correlation energy =             18.514918875091912

     ----------------------------------------------------------------


     total cpu time spent up to now is    68660.5 secs

     total energy              =  -24476.86783066 Ry
     estimated scf accuracy    <     168.94043733 Ry

     total magnetization       =     0.13 Bohr mag/cell
     absolute magnetization    =     1.81 Bohr mag/cell

     iteration # 12     ecut=    60.00 Ry     beta= 0.10
     CG style diagonalization

---- Real-time Memory Report at c_bands before calling an iterative solver
             0 MiB given to the printing process from OS
             0 MiB allocation reported by mallinfo(arena+hblkhd)
         99919 MiB available memory on the node where the printing process lives
------------------
     ethr =  5.85E-03,  avg # of iterations =  3.0

     negative rho (up, down):  1.568E+01 1.570E+01


     ----------------------------------------------------------------

     Non-local correlation energy =             18.530056171516947

     ----------------------------------------------------------------


     total cpu time spent up to now is    70595.5 secs

     total energy              =  -24484.07180785 Ry
     estimated scf accuracy    <     749.91416482 Ry

     total magnetization       =    -0.12 Bohr mag/cell
     absolute magnetization    =     4.85 Bohr mag/cell

     iteration # 13     ecut=    60.00 Ry     beta= 0.10
     CG style diagonalization

---- Real-time Memory Report at c_bands before calling an iterative solver
             0 MiB given to the printing process from OS
             0 MiB allocation reported by mallinfo(arena+hblkhd)
         99932 MiB available memory on the node where the printing process lives
------------------
     ethr =  5.85E-03,  avg # of iterations =  3.0

     negative rho (up, down):  1.551E+01 1.553E+01


     ----------------------------------------------------------------

     Non-local correlation energy =             18.537065779641608

     ----------------------------------------------------------------


     total cpu time spent up to now is    72515.3 secs

     total energy              =  -24490.43161088 Ry
     estimated scf accuracy    <     525.48001211 Ry

     total magnetization       =     0.87 Bohr mag/cell
     absolute magnetization    =     4.12 Bohr mag/cell

     iteration # 14     ecut=    60.00 Ry     beta= 0.10
     CG style diagonalization

---- Real-time Memory Report at c_bands before calling an iterative solver
             0 MiB given to the printing process from OS
             0 MiB allocation reported by mallinfo(arena+hblkhd)
         99946 MiB available memory on the node where the printing process lives
------------------
     ethr =  5.85E-03,  avg # of iterations =  3.0

     negative rho (up, down):  1.642E+01 1.642E+01


     ----------------------------------------------------------------

     Non-local correlation energy =             18.518049822501297

     ----------------------------------------------------------------


     total cpu time spent up to now is    74429.8 secs

     total energy              =  -24467.55570605 Ry
     estimated scf accuracy    <     587.24796062 Ry

     total magnetization       =     1.46 Bohr mag/cell
     absolute magnetization    =     3.89 Bohr mag/cell

     iteration # 15     ecut=    60.00 Ry     beta= 0.10
     CG style diagonalization

---- Real-time Memory Report at c_bands before calling an iterative solver
             0 MiB given to the printing process from OS
             0 MiB allocation reported by mallinfo(arena+hblkhd)
         99942 MiB available memory on the node where the printing process lives
------------------
     ethr =  5.85E-03,  avg # of iterations =  3.0

     negative rho (up, down):  1.412E+01 1.410E+01


     ----------------------------------------------------------------

     Non-local correlation energy =             18.631639677407833

     ----------------------------------------------------------------


     total cpu time spent up to now is    76341.9 secs

     total energy              =  -24479.71358472 Ry
     estimated scf accuracy    <     201.50896548 Ry

     total magnetization       =     1.33 Bohr mag/cell
     absolute magnetization    =     2.66 Bohr mag/cell

     iteration # 16     ecut=    60.00 Ry     beta= 0.10
     CG style diagonalization

---- Real-time Memory Report at c_bands before calling an iterative solver
             0 MiB given to the printing process from OS
             0 MiB allocation reported by mallinfo(arena+hblkhd)
         99970 MiB available memory on the node where the printing process lives
------------------
     ethr =  5.85E-03,  avg # of iterations =  3.0

     negative rho (up, down):  1.377E+01 1.373E+01


     ----------------------------------------------------------------

     Non-local correlation energy =             18.662255233647507

     ----------------------------------------------------------------


     total cpu time spent up to now is    78285.0 secs

     total energy              =  -24510.72710896 Ry
     estimated scf accuracy    <     799.89309428 Ry

     total magnetization       =     3.92 Bohr mag/cell
     absolute magnetization    =     6.57 Bohr mag/cell

     iteration # 17     ecut=    60.00 Ry     beta= 0.10
     CG style diagonalization

---- Real-time Memory Report at c_bands before calling an iterative solver
             0 MiB given to the printing process from OS
             0 MiB allocation reported by mallinfo(arena+hblkhd)
         99973 MiB available memory on the node where the printing process lives
------------------
     ethr =  5.85E-03,  avg # of iterations =  3.0

     negative rho (up, down):  1.544E+01 1.544E+01


     ----------------------------------------------------------------

     Non-local correlation energy =             18.569553401312383

     ----------------------------------------------------------------


     total cpu time spent up to now is    80211.7 secs

     total energy              =  -24474.49472100 Ry
     estimated scf accuracy    <    1012.74593348 Ry

     total magnetization       =     6.55 Bohr mag/cell
     absolute magnetization    =     9.06 Bohr mag/cell

     iteration # 18     ecut=    60.00 Ry     beta= 0.10
     CG style diagonalization

---- Real-time Memory Report at c_bands before calling an iterative solver
             0 MiB given to the printing process from OS
             0 MiB allocation reported by mallinfo(arena+hblkhd)
         99987 MiB available memory on the node where the printing process lives
------------------
     ethr =  5.85E-03,  avg # of iterations =  3.0

     negative rho (up, down):  1.712E+01 1.712E+01


     ----------------------------------------------------------------

     Non-local correlation energy =             18.576979818179314

     ----------------------------------------------------------------


     total cpu time spent up to now is    82127.0 secs

     total energy              =  -24458.10107261 Ry
     estimated scf accuracy    <     456.76698471 Ry

     total magnetization       =     1.66 Bohr mag/cell
     absolute magnetization    =     3.49 Bohr mag/cell

     iteration # 19     ecut=    60.00 Ry     beta= 0.10
     CG style diagonalization

---- Real-time Memory Report at c_bands before calling an iterative solver
             0 MiB given to the printing process from OS
             0 MiB allocation reported by mallinfo(arena+hblkhd)
        100016 MiB available memory on the node where the printing process lives
------------------
     ethr =  5.85E-03,  avg # of iterations =  3.0

     negative rho (up, down):  1.589E+01 1.591E+01


     ----------------------------------------------------------------

     Non-local correlation energy =             18.615114582607621

     ----------------------------------------------------------------


     total cpu time spent up to now is    84085.3 secs

     total energy              =  -24458.51256720 Ry
     estimated scf accuracy    <      99.40235469 Ry

     total magnetization       =     0.74 Bohr mag/cell
     absolute magnetization    =     2.67 Bohr mag/cell

     iteration # 20     ecut=    60.00 Ry     beta= 0.10
     CG style diagonalization

---- Real-time Memory Report at c_bands before calling an iterative solver
             0 MiB given to the printing process from OS
             0 MiB allocation reported by mallinfo(arena+hblkhd)
        100021 MiB available memory on the node where the printing process lives
------------------
     ethr =  5.35E-03,  avg # of iterations =  3.0

     negative rho (up, down):  1.622E+01 1.623E+01


     ----------------------------------------------------------------

     Non-local correlation energy =             18.588940309692845

     ----------------------------------------------------------------


     total cpu time spent up to now is    85996.3 secs

     total energy              =  -24469.26170306 Ry
     estimated scf accuracy    <     145.68304937 Ry

     total magnetization       =     2.02 Bohr mag/cell
     absolute magnetization    =     3.51 Bohr mag/cell

     iteration # 21     ecut=    60.00 Ry     beta= 0.10
     CG style diagonalization

---- Real-time Memory Report at c_bands before calling an iterative solver
             0 MiB given to the printing process from OS
             0 MiB allocation reported by mallinfo(arena+hblkhd)
        100032 MiB available memory on the node where the printing process lives
------------------
     ethr =  5.35E-03,  avg # of iterations =  3.0

     negative rho (up, down):  1.547E+01 1.546E+01


     ----------------------------------------------------------------

     Non-local correlation energy =             18.612764553580536

     ----------------------------------------------------------------


     total cpu time spent up to now is    87905.5 secs

     total energy              =  -24467.00160077 Ry
     estimated scf accuracy    <     105.32492116 Ry

     total magnetization       =     1.65 Bohr mag/cell
     absolute magnetization    =     2.90 Bohr mag/cell

     iteration # 22     ecut=    60.00 Ry     beta= 0.10
     CG style diagonalization

---- Real-time Memory Report at c_bands before calling an iterative solver
             0 MiB given to the printing process from OS
             0 MiB allocation reported by mallinfo(arena+hblkhd)
        100045 MiB available memory on the node where the printing process lives
------------------
     ethr =  5.35E-03,  avg # of iterations =  3.0

     negative rho (up, down):  1.442E+01 1.439E+01


     ----------------------------------------------------------------

     Non-local correlation energy =             18.676045701519790

     ----------------------------------------------------------------


     total cpu time spent up to now is    89816.2 secs

     total energy              =  -24466.34114444 Ry
     estimated scf accuracy    <     106.83055936 Ry

     total magnetization       =     1.92 Bohr mag/cell
     absolute magnetization    =     2.85 Bohr mag/cell

     iteration # 23     ecut=    60.00 Ry     beta= 0.10
     CG style diagonalization

---- Real-time Memory Report at c_bands before calling an iterative solver
             0 MiB given to the printing process from OS
             0 MiB allocation reported by mallinfo(arena+hblkhd)
        100044 MiB available memory on the node where the printing process lives
------------------
     ethr =  5.35E-03,  avg # of iterations =  3.0

     negative rho (up, down):  1.377E+01 1.372E+01


     ----------------------------------------------------------------

     Non-local correlation energy =             18.708792878656059

     ----------------------------------------------------------------


     total cpu time spent up to now is    91725.8 secs

     total energy              =  -24470.93211155 Ry
     estimated scf accuracy    <     112.32142372 Ry

     total magnetization       =     2.54 Bohr mag/cell
     absolute magnetization    =     3.43 Bohr mag/cell

     iteration # 24     ecut=    60.00 Ry     beta= 0.10
     CG style diagonalization

---- Real-time Memory Report at c_bands before calling an iterative solver
             0 MiB given to the printing process from OS
             0 MiB allocation reported by mallinfo(arena+hblkhd)
        100036 MiB available memory on the node where the printing process lives
------------------
     ethr =  5.35E-03,  avg # of iterations =  3.0

     negative rho (up, down):  1.351E+01 1.346E+01


     ----------------------------------------------------------------

     Non-local correlation energy =             18.755861259877783

     ----------------------------------------------------------------


     total cpu time spent up to now is    93636.6 secs

     total energy              =  -24464.40874004 Ry
     estimated scf accuracy    <     211.48275936 Ry

     total magnetization       =     2.44 Bohr mag/cell
     absolute magnetization    =     3.62 Bohr mag/cell

     iteration # 25     ecut=    60.00 Ry     beta= 0.10
     CG style diagonalization

---- Real-time Memory Report at c_bands before calling an iterative solver
             0 MiB given to the printing process from OS
             0 MiB allocation reported by mallinfo(arena+hblkhd)
        100045 MiB available memory on the node where the printing process lives
------------------
     ethr =  5.35E-03,  avg # of iterations =  3.0

     negative rho (up, down):  1.344E+01 1.339E+01


     ----------------------------------------------------------------

     Non-local correlation energy =             18.716173477296135

     ----------------------------------------------------------------


     total cpu time spent up to now is    95546.9 secs

     total energy              =  -24464.06721734 Ry
     estimated scf accuracy    <      88.29885277 Ry

     total magnetization       =     2.34 Bohr mag/cell
     absolute magnetization    =     3.38 Bohr mag/cell

     iteration # 26     ecut=    60.00 Ry     beta= 0.10
     CG style diagonalization

---- Real-time Memory Report at c_bands before calling an iterative solver
             0 MiB given to the printing process from OS
             0 MiB allocation reported by mallinfo(arena+hblkhd)
        100052 MiB available memory on the node where the printing process lives
------------------
     ethr =  4.75E-03,  avg # of iterations =  3.0

     negative rho (up, down):  1.347E+01 1.342E+01


     ----------------------------------------------------------------

     Non-local correlation energy =             18.711942081486271

     ----------------------------------------------------------------


     total cpu time spent up to now is    97458.3 secs

     total energy              =  -24464.51795412 Ry
     estimated scf accuracy    <      92.13048327 Ry

     total magnetization       =     2.20 Bohr mag/cell
     absolute magnetization    =     3.18 Bohr mag/cell

     iteration # 27     ecut=    60.00 Ry     beta= 0.10
     CG style diagonalization

---- Real-time Memory Report at c_bands before calling an iterative solver
             0 MiB given to the printing process from OS
             0 MiB allocation reported by mallinfo(arena+hblkhd)
        100047 MiB available memory on the node where the printing process lives
------------------
     ethr =  4.75E-03,  avg # of iterations =  3.0

     negative rho (up, down):  1.364E+01 1.360E+01


     ----------------------------------------------------------------

     Non-local correlation energy =             18.686123125818717

     ----------------------------------------------------------------


     total cpu time spent up to now is    99369.4 secs

     total energy              =  -24464.06566386 Ry
     estimated scf accuracy    <      95.47401378 Ry

     total magnetization       =     2.20 Bohr mag/cell
     absolute magnetization    =     3.15 Bohr mag/cell

     iteration # 28     ecut=    60.00 Ry     beta= 0.10
     CG style diagonalization

---- Real-time Memory Report at c_bands before calling an iterative solver
             0 MiB given to the printing process from OS
             0 MiB allocation reported by mallinfo(arena+hblkhd)
        100039 MiB available memory on the node where the printing process lives
------------------
     ethr =  4.75E-03,  avg # of iterations =  3.0

     negative rho (up, down):  1.554E+01 1.554E+01


     ----------------------------------------------------------------

     Non-local correlation energy =             18.632743090480457

     ----------------------------------------------------------------


     total cpu time spent up to now is   101280.1 secs

     total energy              =  -24457.60932190 Ry
     estimated scf accuracy    <     114.49133308 Ry

     total magnetization       =     1.93 Bohr mag/cell
     absolute magnetization    =     2.80 Bohr mag/cell

     iteration # 29     ecut=    60.00 Ry     beta= 0.10
     CG style diagonalization

---- Real-time Memory Report at c_bands before calling an iterative solver
             0 MiB given to the printing process from OS
             0 MiB allocation reported by mallinfo(arena+hblkhd)
        100041 MiB available memory on the node where the printing process lives
------------------
     ethr =  4.75E-03,  avg # of iterations =  3.0

     negative rho (up, down):  1.369E+01 1.366E+01


     ----------------------------------------------------------------

     Non-local correlation energy =             18.682189869378540

     ----------------------------------------------------------------


     total cpu time spent up to now is   103199.7 secs

     total energy              =  -24452.31077708 Ry
     estimated scf accuracy    <      84.26155019 Ry

     total magnetization       =     0.52 Bohr mag/cell
     absolute magnetization    =     1.53 Bohr mag/cell

     iteration # 30     ecut=    60.00 Ry     beta= 0.10
     CG style diagonalization

---- Real-time Memory Report at c_bands before calling an iterative solver
             0 MiB given to the printing process from OS
             0 MiB allocation reported by mallinfo(arena+hblkhd)
        100030 MiB available memory on the node where the printing process lives
------------------
     ethr =  4.54E-03,  avg # of iterations =  3.0

     negative rho (up, down):  1.337E+01 1.333E+01


     ----------------------------------------------------------------

     Non-local correlation energy =             18.709154880652200

     ----------------------------------------------------------------


     total cpu time spent up to now is   105110.9 secs

     total energy              =  -24458.47729707 Ry
     estimated scf accuracy    <      67.59298896 Ry

     total magnetization       =     1.67 Bohr mag/cell
     absolute magnetization    =     2.37 Bohr mag/cell

     iteration # 31     ecut=    60.00 Ry     beta= 0.10
     CG style diagonalization

---- Real-time Memory Report at c_bands before calling an iterative solver
             0 MiB given to the printing process from OS
             0 MiB allocation reported by mallinfo(arena+hblkhd)
        100029 MiB available memory on the node where the printing process lives
------------------
     ethr =  3.64E-03,  avg # of iterations =  3.0

     negative rho (up, down):  1.307E+01 1.304E+01


     ----------------------------------------------------------------

     Non-local correlation energy =             18.718224503773602

     ----------------------------------------------------------------


     total cpu time spent up to now is   107022.6 secs

     total energy              =  -24454.97798170 Ry
     estimated scf accuracy    <      37.47626984 Ry

     total magnetization       =     1.32 Bohr mag/cell
     absolute magnetization    =     2.16 Bohr mag/cell

     iteration # 32     ecut=    60.00 Ry     beta= 0.10
     CG style diagonalization

---- Real-time Memory Report at c_bands before calling an iterative solver
             0 MiB given to the printing process from OS
             0 MiB allocation reported by mallinfo(arena+hblkhd)
        100043 MiB available memory on the node where the printing process lives
------------------
     ethr =  2.02E-03,  avg # of iterations =  3.0

     negative rho (up, down):  1.241E+01 1.238E+01


     ----------------------------------------------------------------

     Non-local correlation energy =             18.758124508101794

     ----------------------------------------------------------------


     total cpu time spent up to now is   108933.6 secs

     total energy              =  -24454.21364196 Ry
     estimated scf accuracy    <      14.56845158 Ry

     total magnetization       =     0.54 Bohr mag/cell
     absolute magnetization    =     1.97 Bohr mag/cell

     iteration # 33     ecut=    60.00 Ry     beta= 0.10
     CG style diagonalization

---- Real-time Memory Report at c_bands before calling an iterative solver
             0 MiB given to the printing process from OS
             0 MiB allocation reported by mallinfo(arena+hblkhd)
        100043 MiB available memory on the node where the printing process lives
------------------
     ethr =  7.85E-04,  avg # of iterations =  3.0

     negative rho (up, down):  1.212E+01 1.208E+01


     ----------------------------------------------------------------

     Non-local correlation energy =             18.785515337365890

     ----------------------------------------------------------------


     total cpu time spent up to now is   110871.1 secs

     total energy              =  -24451.32437396 Ry
     estimated scf accuracy    <      16.54766426 Ry

     total magnetization       =     0.02 Bohr mag/cell
     absolute magnetization    =     2.47 Bohr mag/cell

     iteration # 34     ecut=    60.00 Ry     beta= 0.10
     CG style diagonalization

---- Real-time Memory Report at c_bands before calling an iterative solver
             0 MiB given to the printing process from OS
             0 MiB allocation reported by mallinfo(arena+hblkhd)
        100030 MiB available memory on the node where the printing process lives
------------------
     ethr =  7.85E-04,  avg # of iterations =  3.0

     negative rho (up, down):  1.163E+01 1.160E+01


     ----------------------------------------------------------------

     Non-local correlation energy =             18.838340241151549

     ----------------------------------------------------------------


     total cpu time spent up to now is   112790.3 secs

     total energy              =  -24450.37962224 Ry
     estimated scf accuracy    <      33.06598695 Ry

     total magnetization       =     1.13 Bohr mag/cell
     absolute magnetization    =     2.78 Bohr mag/cell

     iteration # 35     ecut=    60.00 Ry     beta= 0.10
     CG style diagonalization

---- Real-time Memory Report at c_bands before calling an iterative solver
             0 MiB given to the printing process from OS
             0 MiB allocation reported by mallinfo(arena+hblkhd)
        100028 MiB available memory on the node where the printing process lives
------------------
     ethr =  7.85E-04,  avg # of iterations =  3.1

     negative rho (up, down):  1.164E+01 1.162E+01


     ----------------------------------------------------------------

     Non-local correlation energy =             18.851576964096417

     ----------------------------------------------------------------


     total cpu time spent up to now is   114844.0 secs

     total energy              =  -24450.78406001 Ry
     estimated scf accuracy    <       5.35249769 Ry

     total magnetization       =    -0.05 Bohr mag/cell
     absolute magnetization    =     3.13 Bohr mag/cell

     iteration # 36     ecut=    60.00 Ry     beta= 0.10
     CG style diagonalization

---- Real-time Memory Report at c_bands before calling an iterative solver
             0 MiB given to the printing process from OS
             0 MiB allocation reported by mallinfo(arena+hblkhd)
        100039 MiB available memory on the node where the printing process lives
------------------
     c_bands:  1 eigenvalues not converged
     ethr =  2.88E-04,  avg # of iterations =  3.2

     negative rho (up, down):  1.148E+01 1.146E+01


     ----------------------------------------------------------------

     Non-local correlation energy =             18.840048045835296

     ----------------------------------------------------------------


     total cpu time spent up to now is   116906.3 secs

     total energy              =  -24450.58235060 Ry
     estimated scf accuracy    <       4.35599330 Ry

     total magnetization       =    -0.28 Bohr mag/cell
     absolute magnetization    =     3.20 Bohr mag/cell

     iteration # 37     ecut=    60.00 Ry     beta= 0.10
     CG style diagonalization

---- Real-time Memory Report at c_bands before calling an iterative solver
             0 MiB given to the printing process from OS
             0 MiB allocation reported by mallinfo(arena+hblkhd)
        100037 MiB available memory on the node where the printing process lives
------------------
     ethr =  2.35E-04,  avg # of iterations =  3.0

     negative rho (up, down):  1.148E+01 1.148E+01


     ----------------------------------------------------------------

     Non-local correlation energy =             18.830308317616669

     ----------------------------------------------------------------


     total cpu time spent up to now is   118817.6 secs

     total energy              =  -24450.11509050 Ry
     estimated scf accuracy    <       3.16897335 Ry

     total magnetization       =    -0.08 Bohr mag/cell
     absolute magnetization    =     2.78 Bohr mag/cell

     iteration # 38     ecut=    60.00 Ry     beta= 0.10
     CG style diagonalization

---- Real-time Memory Report at c_bands before calling an iterative solver
             0 MiB given to the printing process from OS
             0 MiB allocation reported by mallinfo(arena+hblkhd)
        100040 MiB available memory on the node where the printing process lives
------------------
     ethr =  1.71E-04,  avg # of iterations =  3.0

     negative rho (up, down):  1.130E+01 1.130E+01


     ----------------------------------------------------------------

     Non-local correlation energy =             18.813506700578337

     ----------------------------------------------------------------


     total cpu time spent up to now is   120731.2 secs

     total energy              =  -24449.91693039 Ry
     estimated scf accuracy    <       2.36362863 Ry

     total magnetization       =    -0.33 Bohr mag/cell
     absolute magnetization    =     2.44 Bohr mag/cell

     iteration # 39     ecut=    60.00 Ry     beta= 0.10
     CG style diagonalization

---- Real-time Memory Report at c_bands before calling an iterative solver
             0 MiB given to the printing process from OS
             0 MiB allocation reported by mallinfo(arena+hblkhd)
        100049 MiB available memory on the node where the printing process lives
------------------
     ethr =  1.27E-04,  avg # of iterations =  3.0

     negative rho (up, down):  1.152E+01 1.153E+01


     ----------------------------------------------------------------

     Non-local correlation energy =             18.801113646577377

     ----------------------------------------------------------------


     total cpu time spent up to now is   122659.3 secs

     total energy              =  -24449.61534844 Ry
     estimated scf accuracy    <       4.93579354 Ry

     total magnetization       =    -0.09 Bohr mag/cell
     absolute magnetization    =     1.88 Bohr mag/cell

     iteration # 40     ecut=    60.00 Ry     beta= 0.10
     CG style diagonalization

---- Real-time Memory Report at c_bands before calling an iterative solver
             0 MiB given to the printing process from OS
             0 MiB allocation reported by mallinfo(arena+hblkhd)
        100045 MiB available memory on the node where the printing process lives
------------------
     c_bands:  1 eigenvalues not converged
     c_bands:  1 eigenvalues not converged
     ethr =  1.27E-04,  avg # of iterations =  3.1

     negative rho (up, down):  1.160E+01 1.161E+01


     ----------------------------------------------------------------

     Non-local correlation energy =             18.796361361174316

     ----------------------------------------------------------------


     total cpu time spent up to now is   124690.2 secs

     total energy              =  -24449.56183530 Ry
     estimated scf accuracy    <       4.06064872 Ry

     total magnetization       =    -0.61 Bohr mag/cell
     absolute magnetization    =     1.86 Bohr mag/cell

     iteration # 41     ecut=    60.00 Ry     beta= 0.10
     CG style diagonalization

---- Real-time Memory Report at c_bands before calling an iterative solver
             0 MiB given to the printing process from OS
             0 MiB allocation reported by mallinfo(arena+hblkhd)
        100029 MiB available memory on the node where the printing process lives
------------------
     ethr =  1.27E-04,  avg # of iterations =  3.0

     negative rho (up, down):  1.134E+01 1.135E+01


     ----------------------------------------------------------------

     Non-local correlation energy =             18.791460680700823

     ----------------------------------------------------------------


     total cpu time spent up to now is   126603.7 secs

     total energy              =  -24449.61127231 Ry
     estimated scf accuracy    <       2.41004657 Ry

     total magnetization       =    -0.34 Bohr mag/cell
     absolute magnetization    =     1.53 Bohr mag/cell

     iteration # 42     ecut=    60.00 Ry     beta= 0.10
     CG style diagonalization

---- Real-time Memory Report at c_bands before calling an iterative solver
             0 MiB given to the printing process from OS
             0 MiB allocation reported by mallinfo(arena+hblkhd)
        100043 MiB available memory on the node where the printing process lives
------------------
     ethr =  1.27E-04,  avg # of iterations =  3.0

     negative rho (up, down):  1.131E+01 1.132E+01


     ----------------------------------------------------------------

     Non-local correlation energy =             18.781887542466720

     ----------------------------------------------------------------


     total cpu time spent up to now is   128514.9 secs

     total energy              =  -24449.41460027 Ry
     estimated scf accuracy    <       1.86349694 Ry

     total magnetization       =    -0.33 Bohr mag/cell
     absolute magnetization    =     1.33 Bohr mag/cell

     iteration # 43     ecut=    60.00 Ry     beta= 0.10
     CG style diagonalization

---- Real-time Memory Report at c_bands before calling an iterative solver
             0 MiB given to the printing process from OS
             0 MiB allocation reported by mallinfo(arena+hblkhd)
        100021 MiB available memory on the node where the printing process lives
------------------
     ethr =  1.00E-04,  avg # of iterations =  3.1

     negative rho (up, down):  1.129E+01 1.130E+01


     ----------------------------------------------------------------

     Non-local correlation energy =             18.777234793398915

     ----------------------------------------------------------------


     total cpu time spent up to now is   130524.6 secs

     total energy              =  -24449.35001097 Ry
     estimated scf accuracy    <       0.68222969 Ry

     total magnetization       =    -0.45 Bohr mag/cell
     absolute magnetization    =     1.09 Bohr mag/cell

     iteration # 44     ecut=    60.00 Ry     beta= 0.10
     CG style diagonalization

---- Real-time Memory Report at c_bands before calling an iterative solver
             0 MiB given to the printing process from OS
             0 MiB allocation reported by mallinfo(arena+hblkhd)
        100026 MiB available memory on the node where the printing process lives
------------------
     c_bands:  1 eigenvalues not converged
     ethr =  3.67E-05,  avg # of iterations =  3.2

     negative rho (up, down):  1.122E+01 1.123E+01


     ----------------------------------------------------------------

     Non-local correlation energy =             18.769496740229265

     ----------------------------------------------------------------


     total cpu time spent up to now is   132626.5 secs

     total energy              =  -24449.27505669 Ry
     estimated scf accuracy    <       0.62381888 Ry

     total magnetization       =    -0.39 Bohr mag/cell
     absolute magnetization    =     0.89 Bohr mag/cell

     iteration # 45     ecut=    60.00 Ry     beta= 0.10
     CG style diagonalization

---- Real-time Memory Report at c_bands before calling an iterative solver
             0 MiB given to the printing process from OS
             0 MiB allocation reported by mallinfo(arena+hblkhd)
        100009 MiB available memory on the node where the printing process lives
------------------
     ethr =  3.36E-05,  avg # of iterations =  3.1

     negative rho (up, down):  1.103E+01 1.103E+01


     ----------------------------------------------------------------

     Non-local correlation energy =             18.766556332173209

     ----------------------------------------------------------------


     total cpu time spent up to now is   134648.9 secs

     total energy              =  -24449.19685304 Ry
     estimated scf accuracy    <       0.41028484 Ry

     total magnetization       =    -0.38 Bohr mag/cell
     absolute magnetization    =     0.74 Bohr mag/cell

     iteration # 46     ecut=    60.00 Ry     beta= 0.10
     CG style diagonalization

---- Real-time Memory Report at c_bands before calling an iterative solver
             0 MiB given to the printing process from OS
             0 MiB allocation reported by mallinfo(arena+hblkhd)
        100016 MiB available memory on the node where the printing process lives
------------------
     c_bands:  3 eigenvalues not converged
     c_bands:  2 eigenvalues not converged
     ethr =  2.21E-05,  avg # of iterations =  3.2

     negative rho (up, down):  1.088E+01 1.088E+01


     ----------------------------------------------------------------

     Non-local correlation energy =             18.768817175372629

     ----------------------------------------------------------------


     total cpu time spent up to now is   136768.0 secs

     total energy              =  -24449.15553242 Ry
     estimated scf accuracy    <       0.32571385 Ry

     total magnetization       =    -0.33 Bohr mag/cell
     absolute magnetization    =     0.60 Bohr mag/cell

     iteration # 47     ecut=    60.00 Ry     beta= 0.10
     CG style diagonalization

---- Real-time Memory Report at c_bands before calling an iterative solver
             0 MiB given to the printing process from OS
             0 MiB allocation reported by mallinfo(arena+hblkhd)
        100011 MiB available memory on the node where the printing process lives
------------------
     c_bands:  1 eigenvalues not converged
     ethr =  1.75E-05,  avg # of iterations =  3.1

     negative rho (up, down):  1.072E+01 1.072E+01


     ----------------------------------------------------------------

     Non-local correlation energy =             18.766056023400765

     ----------------------------------------------------------------


     total cpu time spent up to now is   138735.7 secs

     total energy              =  -24449.09191826 Ry
     estimated scf accuracy    <       0.25561579 Ry

     total magnetization       =    -0.29 Bohr mag/cell
     absolute magnetization    =     0.50 Bohr mag/cell

     iteration # 48     ecut=    60.00 Ry     beta= 0.10
     CG style diagonalization

---- Real-time Memory Report at c_bands before calling an iterative solver
             0 MiB given to the printing process from OS
             0 MiB allocation reported by mallinfo(arena+hblkhd)
        100025 MiB available memory on the node where the printing process lives
------------------
     c_bands:  3 eigenvalues not converged
     c_bands:  2 eigenvalues not converged
     ethr =  1.38E-05,  avg # of iterations =  3.3

     negative rho (up, down):  1.071E+01 1.071E+01


     ----------------------------------------------------------------

     Non-local correlation energy =             18.764812948875850

     ----------------------------------------------------------------


     total cpu time spent up to now is   140934.7 secs

     total energy              =  -24449.08617480 Ry
     estimated scf accuracy    <       0.16550174 Ry

     total magnetization       =    -0.22 Bohr mag/cell
     absolute magnetization    =     0.40 Bohr mag/cell

     iteration # 49     ecut=    60.00 Ry     beta= 0.10
     CG style diagonalization

---- Real-time Memory Report at c_bands before calling an iterative solver
             0 MiB given to the printing process from OS
             0 MiB allocation reported by mallinfo(arena+hblkhd)
        100029 MiB available memory on the node where the printing process lives
------------------
     c_bands:  1 eigenvalues not converged
     ethr =  8.91E-06,  avg # of iterations =  3.1

     negative rho (up, down):  1.062E+01 1.062E+01


     ----------------------------------------------------------------

     Non-local correlation energy =             18.767663470333474

     ----------------------------------------------------------------


     total cpu time spent up to now is   142940.2 secs

     total energy              =  -24449.06687379 Ry
     estimated scf accuracy    <       0.14759892 Ry

     total magnetization       =    -0.20 Bohr mag/cell
     absolute magnetization    =     0.39 Bohr mag/cell

     iteration # 50     ecut=    60.00 Ry     beta= 0.10
     CG style diagonalization

---- Real-time Memory Report at c_bands before calling an iterative solver
             0 MiB given to the printing process from OS
             0 MiB allocation reported by mallinfo(arena+hblkhd)
        100023 MiB available memory on the node where the printing process lives
------------------
     ethr =  7.95E-06,  avg # of iterations =  3.2

     negative rho (up, down):  1.053E+01 1.053E+01


     ----------------------------------------------------------------

     Non-local correlation energy =             18.772716430053013

     ----------------------------------------------------------------


     total cpu time spent up to now is   145030.4 secs

     total energy              =  -24449.05463291 Ry
     estimated scf accuracy    <       0.11181373 Ry

     total magnetization       =    -0.17 Bohr mag/cell
     absolute magnetization    =     0.33 Bohr mag/cell

     iteration # 51     ecut=    60.00 Ry     beta= 0.10
     CG style diagonalization

---- Real-time Memory Report at c_bands before calling an iterative solver
             0 MiB given to the printing process from OS
             0 MiB allocation reported by mallinfo(arena+hblkhd)
        100035 MiB available memory on the node where the printing process lives
------------------
     c_bands:  1 eigenvalues not converged
     c_bands:  1 eigenvalues not converged
     ethr =  6.02E-06,  avg # of iterations =  3.2

     negative rho (up, down):  1.045E+01 1.045E+01


     ----------------------------------------------------------------

     Non-local correlation energy =             18.778152825513907

     ----------------------------------------------------------------


     total cpu time spent up to now is   147102.2 secs

     total energy              =  -24449.04216480 Ry
     estimated scf accuracy    <       0.08849700 Ry

     total magnetization       =    -0.15 Bohr mag/cell
     absolute magnetization    =     0.29 Bohr mag/cell

     iteration # 52     ecut=    60.00 Ry     beta= 0.10
     CG style diagonalization

---- Real-time Memory Report at c_bands before calling an iterative solver
             0 MiB given to the printing process from OS
             0 MiB allocation reported by mallinfo(arena+hblkhd)
        100035 MiB available memory on the node where the printing process lives
------------------
     c_bands:  1 eigenvalues not converged
     c_bands:  1 eigenvalues not converged
     ethr =  4.77E-06,  avg # of iterations =  3.3

     negative rho (up, down):  1.035E+01 1.035E+01


     ----------------------------------------------------------------

     Non-local correlation energy =             18.784644868316040

     ----------------------------------------------------------------


     total cpu time spent up to now is   149281.3 secs

     total energy              =  -24449.02908804 Ry
     estimated scf accuracy    <       0.05890614 Ry

     total magnetization       =    -0.13 Bohr mag/cell
     absolute magnetization    =     0.27 Bohr mag/cell

     iteration # 53     ecut=    60.00 Ry     beta= 0.10
     CG style diagonalization

---- Real-time Memory Report at c_bands before calling an iterative solver
             0 MiB given to the printing process from OS
             0 MiB allocation reported by mallinfo(arena+hblkhd)
        100042 MiB available memory on the node where the printing process lives
------------------
     c_bands:  1 eigenvalues not converged
     c_bands:  1 eigenvalues not converged
     ethr =  3.17E-06,  avg # of iterations =  3.3

     negative rho (up, down):  1.032E+01 1.032E+01


     ----------------------------------------------------------------

     Non-local correlation energy =             18.784305717974313

     ----------------------------------------------------------------


     total cpu time spent up to now is   151484.4 secs

     total energy              =  -24449.02582112 Ry
     estimated scf accuracy    <       0.04258577 Ry

     total magnetization       =    -0.10 Bohr mag/cell
     absolute magnetization    =     0.25 Bohr mag/cell

     iteration # 54     ecut=    60.00 Ry     beta= 0.10
     CG style diagonalization

---- Real-time Memory Report at c_bands before calling an iterative solver
             0 MiB given to the printing process from OS
             0 MiB allocation reported by mallinfo(arena+hblkhd)
[...]
     atom   16 type  1   force =    -0.00003076   -0.00001275    0.00002098
     atom   17 type  1   force =    -0.00001445   -0.00000920   -0.00001574
     atom   18 type  1   force =    -0.00003455   -0.00002091    0.00001285
     atom   19 type  1   force =    -0.00004014   -0.00001018    0.00000680
     atom   20 type  1   force =    -0.00001356   -0.00003858    0.00000016
     atom   21 type  1   force =    -0.00002555   -0.00000184   -0.00001164
     atom   22 type  1   force =    -0.00004076   -0.00002618   -0.00000270
     atom   23 type  1   force =    -0.00003537   -0.00000650    0.00001235
     atom   24 type  1   force =    -0.00003567   -0.00000018    0.00001406
     atom   25 type  1   force =    -0.00002938    0.00002874    0.00000020
     atom   26 type  1   force =     0.00000809    0.00000122    0.00000038
     atom   27 type  1   force =    -0.00000374   -0.00002362    0.00000020
     atom   28 type  1   force =    -0.00000269    0.00000885   -0.00003086
     atom   29 type  1   force =     0.00001863   -0.00001924    0.00002610
     atom   30 type  1   force =     0.00001284    0.00000499    0.00001084
     atom   31 type  1   force =    -0.00001395   -0.00002433    0.00001285
     atom   32 type  1   force =    -0.00001779    0.00000353    0.00002026
     atom   33 type  1   force =     0.00000674   -0.00002944   -0.00000411
     atom   34 type  1   force =    -0.00001665   -0.00002151   -0.00000496
     atom   35 type  1   force =    -0.00001479   -0.00003043   -0.00000859
     atom   36 type  1   force =    -0.00002444   -0.00001526   -0.00001440
     atom   37 type  1   force =    -0.00001275   -0.00003076    0.00002095
     atom   38 type  1   force =     0.00001826    0.00001829   -0.00003118
     atom   39 type  1   force =    -0.00000546   -0.00002118   -0.00000028
     atom   40 type  1   force =    -0.00002121   -0.00000544   -0.00000026
     atom   41 type  1   force =    -0.00002528   -0.00002524   -0.00004444
     atom   42 type  1   force =     0.00001754    0.00001756    0.00003036
     atom   43 type  1   force =    -0.00000333   -0.00003121   -0.00000649
     atom   44 type  1   force =    -0.00003119   -0.00000333   -0.00000647
     atom   45 type  1   force =    -0.00003746   -0.00003745    0.00001938
     atom   46 type  1   force =    -0.00000256   -0.00000258   -0.00001936
     atom   47 type  1   force =    -0.00001211   -0.00002277   -0.00001285
     atom   48 type  1   force =    -0.00002276   -0.00001213   -0.00001285
     atom   49 type  1   force =    -0.00002975   -0.00002978   -0.00002227
     atom   50 type  1   force =    -0.00001634   -0.00001636    0.00002073
     atom   51 type  1   force =    -0.00000445   -0.00000446    0.00003158
     atom   52 type  1   force =    -0.00001173   -0.00002686   -0.00004688
     atom   53 type  1   force =    -0.00003048    0.00000199   -0.00002606
     atom   54 type  1   force =    -0.00003045   -0.00003559   -0.00001299
     atom   55 type  1   force =    -0.00002248   -0.00000137   -0.00005618
     atom   56 type  1   force =    -0.00001278   -0.00004432    0.00001147
     atom   57 type  1   force =    -0.00001692   -0.00001945    0.00000010
     atom   58 type  1   force =    -0.00003133   -0.00004449   -0.00000124
     atom   59 type  1   force =    -0.00002462   -0.00001240    0.00000252
     atom   60 type  1   force =    -0.00000711   -0.00003666   -0.00001524
     atom   61 type  1   force =    -0.00002719    0.00001086    0.00002738
     atom   62 type  1   force =    -0.00001247   -0.00001585    0.00001016
     atom   63 type  1   force =    -0.00001594   -0.00000935    0.00000444
     atom   64 type  1   force =    -0.00001200   -0.00000129    0.00003693
     atom   65 type  1   force =    -0.00000518    0.00001017    0.00004666
     atom   66 type  1   force =    -0.00001939    0.00004196   -0.00002558
     atom   67 type  1   force =    -0.00002119    0.00003611   -0.00000902
     atom   68 type  1   force =    -0.00001251    0.00003945    0.00000230
     atom   69 type  1   force =    -0.00001855    0.00003649    0.00001076
     atom   70 type  1   force =    -0.00000800    0.00003857    0.00003072
     atom   71 type  1   force =    -0.00000922   -0.00001447   -0.00001574
     atom   72 type  1   force =    -0.00002091   -0.00003457    0.00001286
     atom   73 type  1   force =    -0.00003859   -0.00001353    0.00000018
     atom   74 type  1   force =    -0.00001019   -0.00004015    0.00000681
     atom   75 type  1   force =    -0.00000184   -0.00002555   -0.00001161
     atom   76 type  1   force =    -0.00002619   -0.00004075   -0.00000267
     atom   77 type  1   force =    -0.00000652   -0.00003537    0.00001234
     atom   78 type  1   force =    -0.00000020   -0.00003565    0.00001407
     atom   79 type  1   force =    -0.00002687   -0.00001172   -0.00004690
     atom   80 type  1   force =    -0.00003562   -0.00003042   -0.00001297
     atom   81 type  1   force =     0.00000200   -0.00003048   -0.00002606
     atom   82 type  1   force =    -0.00000136   -0.00002246   -0.00005620
     atom   83 type  1   force =    -0.00004433   -0.00001275    0.00001152
     atom   84 type  1   force =    -0.00004448   -0.00003134   -0.00000121
     atom   85 type  1   force =    -0.00001948   -0.00001691    0.00000013
     atom   86 type  1   force =    -0.00001242   -0.00002461    0.00000255
     atom   87 type  1   force =    -0.00003666   -0.00000710   -0.00001524
     atom   88 type  1   force =    -0.00001584   -0.00001248    0.00001015
     atom   89 type  1   force =     0.00001084   -0.00002718    0.00002737
     atom   90 type  1   force =    -0.00000938   -0.00001594    0.00000445
     atom   91 type  1   force =    -0.00000130   -0.00001200    0.00003690
     atom   92 type  1   force =     0.00001016   -0.00000518    0.00004664
     atom   93 type  1   force =    -0.00002151   -0.00002147   -0.00006480
     atom   94 type  1   force =     0.00000150    0.00001935   -0.00003491
     atom   95 type  1   force =     0.00001934    0.00000153   -0.00003491
     atom   96 type  1   force =    -0.00003526   -0.00003525    0.00001061
     atom   97 type  1   force =    -0.00001660   -0.00000356    0.00000652
     atom   98 type  1   force =    -0.00000358   -0.00001661    0.00000654
     atom   99 type  1   force =     0.00002480    0.00002482   -0.00001570
     atom  100 type  1   force =    -0.00002213   -0.00002216    0.00000181
     atom  101 type  1   force =     0.00000993    0.00001707    0.00003903
     atom  102 type  1   force =     0.00001706    0.00000992    0.00003903
     atom  103 type  1   force =     0.00002364    0.00002364    0.00003222
     atom  104 type  1   force =     0.00000073    0.00000072    0.00005041
     atom  105 type  1   force =    -0.00000595    0.00005131   -0.00000507
     atom  106 type  1   force =     0.00001786    0.00004770    0.00000811
     atom  107 type  1   force =     0.00000157    0.00004623    0.00001685
     atom  108 type  1   force =     0.00002872   -0.00002938    0.00000022
     atom  109 type  1   force =     0.00004198   -0.00001938   -0.00002560
     atom  110 type  1   force =     0.00003611   -0.00002120   -0.00000899
     atom  111 type  1   force =     0.00003943   -0.00001251    0.00000233
     atom  112 type  1   force =     0.00003646   -0.00001855    0.00001078
     atom  113 type  1   force =     0.00003854   -0.00000800    0.00003072
     atom  114 type  1   force =     0.00005130   -0.00000594   -0.00000506
     atom  115 type  1   force =     0.00004769    0.00001787    0.00000812
     atom  116 type  1   force =     0.00004621    0.00000157    0.00001687
     atom  117 type  2   force =    -0.00000029   -0.00000029    0.00000013

     Total force =     0.003874     Total SCF correction =     0.000423
     SCF correction compared to forces is large: reduce conv_thr to get better values
     Energy error            =      3.4E-05 Ry
     Gradient error          =      9.3E-04 Ry/Bohr

     bfgs converged in  15 scf cycles and  14 bfgs steps
     (criteria: energy <  1.0E-04 Ry, force <  1.0E-03 Ry/Bohr)

     End of BFGS Geometry Optimization

     Final energy             =  -24449.0280378992 Ry

     File ./out/calc.bfgs deleted, as requested
Begin final coordinates

ATOMIC_POSITIONS (angstrom)
Pt              -5.7822393453       -3.8312717106        0.0117239792
Pt              -3.8312717106       -5.7822393453        0.0117239792
Pt              -4.1456911307       -4.1456911307       -2.2017289340
Pt              -4.0571078072       -4.0571078072        2.1389122024
Pt              -5.7932979955        0.0050313287       -3.8408725740
Pt              -4.0535349025       -2.1170658889       -4.0574690860
Pt              -3.8369518128        0.0058046546       -5.7839436287
Pt              -5.8397823183       -1.9478025571       -1.9475362057
Pt              -5.9136371959        0.0047593385       -0.0004747649
Pt              -3.8831555716       -1.9803152919       -0.0168238694
Pt              -3.8853281332        0.0046546373       -1.9754289686
Pt              -5.8215303195       -1.9438005955        1.9569041548
Pt              -5.7884270925        0.0083788096        3.8414750702
Pt              -4.0476781043       -2.1183761176        4.0563817117
Pt              -3.8757004526        0.0074070054        1.9676562683
Pt              -3.8383217691        0.0052283477        5.7922016809
Pt              -4.0488776925        2.1283642585       -4.0502562932
Pt              -5.8380125098        1.9584117055       -1.9510542761
Pt              -5.7882516718        3.8441208144        0.0021345880
Pt              -3.8782325475        1.9684852158       -0.0017018679
Pt              -4.0490011136        4.0518472477       -2.1221588136
Pt              -5.8367421422        1.9549466308        1.9536142416
Pt              -4.0485132922        2.1279753108        4.0565593205
Pt              -4.0466981906        4.0477986543        2.1220982602
Pt              -3.8389419624        5.7913181921        0.0008860160
Pt              -2.1170658889       -4.0535349025       -4.0574690860
Pt               0.0050313287       -5.7932979955       -3.8408725740
Pt               0.0058046546       -3.8369518128       -5.7839436287
Pt              -1.9478025571       -5.8397823183       -1.9475362057
Pt              -1.9803152919       -3.8831555716       -0.0168238694
Pt               0.0047593385       -5.9136371959       -0.0004747649
Pt               0.0046546373       -3.8853281332       -1.9754289686
Pt              -1.9438005955       -5.8215303195        1.9569041548
Pt              -2.1183761176       -4.0476781043        4.0563817117
Pt               0.0083788096       -5.7884270925        3.8414750702
Pt               0.0074070054       -3.8757004526        1.9676562683
Pt               0.0052283477       -3.8383217691        5.7922016809
Pt              -1.9450367416       -1.9450367416       -5.8342398562
Pt              -1.9657133257       -0.0045864590       -3.8654155881
Pt              -0.0045864590       -1.9657133257       -3.8654155881
Pt               0.0020241987        0.0020241987       -5.9163049116
Pt              -2.0605831200       -2.0605831200       -2.0418095215
Pt              -1.9707095833       -0.0148724679       -0.0149775439
Pt              -0.0148724679       -1.9707095833       -0.0149775439
Pt               0.0081251808        0.0081251808       -1.9577725222
Pt              -2.0411429105       -2.0411429105        2.0200033050
Pt              -1.9727512235       -0.0061015395        3.8754133800
Pt              -0.0061015395       -1.9727512235        3.8754133800
Pt              -0.0091625373       -0.0091625373        1.9586012113
Pt              -1.9514509464       -1.9514509464        5.8392869385
Pt              -0.0015369105       -0.0015369105        5.9143365184
Pt              -1.9453755725        1.9433618078       -5.8314555535
Pt              -2.1208566147        4.0506957134       -4.0507655749
Pt               0.0030062516        1.9698947465       -3.8748836743
Pt               0.0004122211        3.8394926461       -5.7888744982
Pt              -2.0296005087        2.0302173531       -2.0303578115
Pt              -1.9692590059        3.8760002211       -0.0002483045
Pt              -0.0022079407        1.9592187110        0.0045948602
Pt               0.0023123282        3.8767164392       -1.9669986049
Pt              -2.0321618254        2.0250128833        2.0296883616
Pt              -2.1229934384        4.0531389067        4.0520597952
Pt              -0.0023167996        1.9662291011        3.8756544189
Pt              -0.0018921529        3.8757669206        1.9703708297
Pt              -1.9484677592        1.9518954982        5.8347604266
Pt               0.0017684411        3.8414878430        5.7874079455
Pt              -0.0000986446        5.7892367765       -3.8396517606
Pt              -1.9489320561        5.8345902439       -1.9496594763
Pt               0.0016134709        5.9171304062        0.0009987301
Pt              -1.9497801698        5.8363516791        1.9494758289
Pt               0.0000483980        5.7893128595        3.8396255731
Pt               2.1283642585       -4.0488776925       -4.0502562932
Pt               1.9584117055       -5.8380125098       -1.9510542761
Pt               1.9684852158       -3.8782325475       -0.0017018679
Pt               3.8441208144       -5.7882516718        0.0021345880
Pt               4.0518472477       -4.0490011136       -2.1221588136
Pt               1.9549466308       -5.8367421422        1.9536142416
Pt               2.1279753108       -4.0485132922        4.0565593205
Pt               4.0477986543       -4.0466981906        2.1220982602
Pt               1.9433618078       -1.9453755725       -5.8314555535
Pt               1.9698947465        0.0030062516       -3.8748836743
Pt               4.0506957134       -2.1208566147       -4.0507655749
Pt               3.8394926461        0.0004122211       -5.7888744982
Pt               2.0302173531       -2.0296005087       -2.0303578115
Pt               1.9592187110       -0.0022079407        0.0045948602
Pt               3.8760002211       -1.9692590059       -0.0002483045
Pt               3.8767164392        0.0023123282       -1.9669986049
Pt               2.0250128833       -2.0321618254        2.0296883616
Pt               1.9662291011       -0.0023167996        3.8756544189
Pt               4.0531389067       -2.1229934384        4.0520597952
Pt               3.8757669206       -0.0018921529        1.9703708297
Pt               1.9518954982       -1.9484677592        5.8347604266
Pt               3.8414878430        0.0017684411        5.7874079455
Pt               1.9525569501        1.9525569501       -5.8345866900
Pt               2.1254669459        4.0549164907       -4.0517757184
Pt               4.0549164907        2.1254669459       -4.0517757184
Pt               2.0390825373        2.0390825373       -2.0317346778
Pt               1.9709732865        3.8779485123        0.0029399764
Pt               3.8779485123        1.9709732865        0.0029399764
Pt               4.0557562708        4.0557562708       -2.1262128831
Pt               2.0283127444        2.0283127444        2.0310821037
Pt               2.1235565362        4.0494566092        4.0487133790
Pt               4.0494566092        2.1235565362        4.0487133790
Pt               4.0532618765        4.0532618765        2.1250173358
Pt               1.9485915920        1.9485915920        5.8327664987
Pt               1.9502799712        5.8368686390       -1.9489888083
Pt               3.8442742018        5.7891343012       -0.0009521610
Pt               1.9519273508        5.8344779491        1.9495092392
Pt               5.7913181921       -3.8389419624        0.0008860160
Pt               5.7892367765       -0.0000986446       -3.8396517606
Pt               5.8345902439       -1.9489320561       -1.9496594763
Pt               5.9171304062        0.0016134709        0.0009987301
Pt               5.8363516791       -1.9497801698        1.9494758289
Pt               5.7893128595        0.0000483980        3.8396255731
Pt               5.8368686390        1.9502799712       -1.9489888083
Pt               5.7891343012        3.8442742018       -0.0009521610
Pt               5.8344779491        1.9519273508        1.9495092392
H               -5.0857505664       -5.0857505664       -3.0097001718
End final coordinates



     Writing all to output data dir ./out/calc.save/ :
     XML data file, charge density, pseudopotentials, collected wavefunctions
 
     init_run     :     97.88s CPU    112.39s WALL (       1 calls)
     electrons    : 778664.28s CPU 788300.71s WALL (      15 calls)
     update_pot   :     98.21s CPU    109.64s WALL (      13 calls)
     forces       :    679.43s CPU    712.77s WALL (      15 calls)

     Called by init_run:
     wfcinit      :     75.06s CPU     78.11s WALL (       1 calls)
     wfcinit:atom :      0.32s CPU      0.45s WALL (       2 calls)
     wfcinit:wfcr :     72.72s CPU     75.39s WALL (       2 calls)
     potinit      :     16.50s CPU     28.38s WALL (       2 calls)
     hinit0       :      5.34s CPU      5.44s WALL (       1 calls)

     Called by electrons:
     c_bands      : 766251.56s CPU 775062.57s WALL (     270 calls)
     sum_band     :   8705.64s CPU   9052.39s WALL (     270 calls)
     v_of_rho     :   1919.36s CPU   2156.31s WALL (     272 calls)
     v_h          :     28.22s CPU     30.77s WALL (     272 calls)
     v_xc         :   1995.41s CPU   2243.28s WALL (     287 calls)
     newd         :    875.24s CPU    982.36s WALL (     272 calls)
     mix_rho      :   1000.88s CPU   1089.30s WALL (     270 calls)

     Called by c_bands:
     init_us_2    :    342.48s CPU    345.93s WALL (    1112 calls)
     rcgdiagg     : 751006.33s CPU 759267.69s WALL (     584 calls)
     wfcrot       :  15029.57s CPU  15570.72s WALL (     530 calls)

     Called by sum_band:
     sum_band:wei :      0.86s CPU      0.87s WALL (     270 calls)
     sum_band:loo :   7457.00s CPU   7702.10s WALL (     270 calls)
     sum_band:buf :     59.83s CPU     60.50s WALL (     540 calls)
     sum_band:ini :    166.69s CPU    168.18s WALL (     540 calls)
     sum_band:cal :   1814.24s CPU   1824.90s WALL (     540 calls)
     sum_band:bec :      5.37s CPU      5.40s WALL (     540 calls)
     addusdens    :   1209.11s CPU   1306.11s WALL (     270 calls)
                                        0.00s GPU  (     270 calls)
     addusd:skk   :     48.06s CPU     84.32s WALL (     540 calls)
                                        0.00s GPU  (     540 calls)

     Called by *cgdiagg:
     h_psi        : 312342.96s CPU 317666.89s WALL ( 1876114 calls)
     s_psi        : 251314.18s CPU 253182.74s WALL ( 3751698 calls)

     Called by h_psi:
     h_psi:calbec : 131946.43s CPU 133020.99s WALL ( 1876114 calls)
     vloc_psi     :  52114.31s CPU  55421.15s WALL ( 1876114 calls)
     add_vuspsi   : 128096.08s CPU 129043.18s WALL ( 1876114 calls)
     hs_1psi      : 424845.29s CPU 430603.79s WALL ( 1875584 calls)
     s_1psi       : 255950.55s CPU 257918.15s WALL ( 1875584 calls)

     General routines
     calbec       : 263597.31s CPU 265713.69s WALL ( 3752358 calls)
     fft          :   1130.11s CPU   1300.90s WALL (   19467 calls)
     ffts         :    475.57s CPU    557.44s WALL (   30703 calls)
     fftw         :  30187.91s CPU  33423.58s WALL ( 4644524 calls)
     interpolate  :     46.64s CPU     53.53s WALL (     544 calls)
 
     Parallel routines
 
     PWSCF        :   9d 0h34m CPU   9d 3h18m WALL

 
   This run was terminated on:  14:20: 0   7May2025            

=------------------------------------------------------------------------------=
   JOB DONE.
=------------------------------------------------------------------------------=
