
     Program PWSCF v.7.3.1 starts on  7Jul2025 at 12: 5:44 

     This program is part of the open-source Quantum ESPRESSO suite
     for quantum simulation of materials; please cite
         "P. Giannozzi et al., J. Phys.:Condens. Matter 21 395502 (2009);
         "P. Giannozzi et al., J. Phys.:Condens. Matter 29 465901 (2017);
         "P. Giannozzi et al., J. Chem. Phys. 152 154105 (2020);
          URL http://www.quantum-espresso.org", 
     in publications or presentations arising from this work. More details at
     http://www.quantum-espresso.org/quote

     Parallel version (MPI), running on    16 processors

     MPI processes distributed on     1 nodes
     102451 MiB available memory on the printing compute node when the environment starts

     Waiting for input...
     Reading input from standard input
Warning: card   &CELL ignored
Warning: card      CELL_DOFREE = 'IBRAV' ignored
Warning: card / ignored

     Current dimensions of program PWSCF are:
     Max number of different atomic species (ntypx) = 10
     Max number of k-points (npk) =  40000
     Max angular momentum in pseudopotentials (lmaxx) =  4
     Message from routine iosys:
     restart disabled: needed files not found

     IMPORTANT: XC functional enforced from input :
     Exchange-correlation= RVV10
                           (   1   4  13   4  26   0   0)
     Any further DFT definition will be discarded
     Please, verify this is what you really want


     Atomic positions and unit cell read from directory:
     ./out/calc.save/
     Message from routine qexsd_readschema :
     xml data file ./out/calc.save/data-file-schema.xml not found
     Nothing found: using input atomic positions and unit cell


     gamma-point specific algorithms are used

     R & G space division:  proc/nbgrp/npool/nimage =      16
     Subspace diagonalization in iterative solution of the eigenvalue problem:
     one sub-group per band group will be used
     scalapack distributed-memory algorithm (size of sub-group:  4*  4 procs)


     Parallelization info
     --------------------
     sticks:   dense  smooth     PW     G-vecs:    dense   smooth      PW
     Min        3408    1704    425               599236   211824   26478
     Max        3410    1706    428               599250   211834   26484
     Sum       54553   27281   6817              9587919  3389267  423701

     Using Slab Decomposition


     Title: 
     calc                                                                       


     bravais-lattice index     =            0
     lattice parameter (alat)  =      37.7945  a.u.
     unit-cell volume          =   53986.6760 (a.u.)^3
     number of atoms/cell      =           55
     number of atomic types    =            1
     number of electrons       =       880.00
     number of Kohn-Sham states=          528
     kinetic-energy cutoff     =      60.0000  Ry
     charge density cutoff     =     480.0000  Ry
     scf convergence threshold =      1.0E-06
     mixing beta               =       0.2000
     number of iterations used =            8  plain     mixing
     energy convergence thresh.=      1.0E-04
     force convergence thresh. =      1.0E-03
     Exchange-correlation= RVV10
                           (   1   4  13   4  26   0   0)
     nstep                     =        10000


     celldm(1)=  37.794522  celldm(2)=   0.000000  celldm(3)=   0.000000
     celldm(4)=   0.000000  celldm(5)=   0.000000  celldm(6)=   0.000000

     crystal axes: (cart. coord. in units of alat)
               a(1) = (   1.000000   0.000000   0.000000 )  
               a(2) = (   0.000000   1.000000   0.000000 )  
               a(3) = (   0.000000   0.000000   1.000000 )  

     reciprocal axes: (cart. coord. in units 2 pi/alat)
               b(1) = (  1.000000  0.000000  0.000000 )  
               b(2) = (  0.000000  1.000000  0.000000 )  
               b(3) = (  0.000000  0.000000  1.000000 )  


     PseudoPot. # 1 for Pt read from file:
     /home/carlos23036/work/IC/pseudos/pt_pbe_v1.4.uspp.F.UPF
     MD5 check sum: f09d6de1a584b5a045c4fc126da2d0c4
     Pseudo is Ultrasoft + core correction, Zval = 16.0
     Generated by new atomic code, or converted to UPF format
     Using radial grid of  985 points,  6 beta functions with: 
                l(1) =   0
                l(2) =   0
                l(3) =   1
                l(4) =   1
                l(5) =   2
                l(6) =   2
     Q(r) pseudized with  8 coefficients,  rinner =    1.300   1.300   1.300
                                                       1.300   1.300

     atomic species   valence    mass     pseudopotential
     Pt               16.00   195.08400     Pt( 1.00)

     Starting magnetic structure 
     atomic species   magnetization
     Pt              0.010

     No symmetry found


                                    s                        frac. trans.

      isym =  1     identity                                     

 cryst.   s( 1) = (     1          0          0      )
                  (     0          1          0      )
                  (     0          0          1      )

 cart.    s( 1) = (  1.0000000  0.0000000  0.0000000 )
                  (  0.0000000  1.0000000  0.0000000 )
                  (  0.0000000  0.0000000  1.0000000 )


   Cartesian axes

     site n.     atom                  positions (alat units)
         1        Pt     tau(   1) = (  -0.1184603  -0.1286729  -0.2144120  )
         2        Pt     tau(   2) = (   0.0880635  -0.1904335  -0.0477653  )
         3        Pt     tau(   3) = (  -0.0411512  -0.2086088  -0.0138204  )
         4        Pt     tau(   4) = (  -0.0536263  -0.0138010  -0.1168783  )
         5        Pt     tau(   5) = (  -0.1338427   0.0924183  -0.1447171  )
         6        Pt     tau(   6) = (  -0.0218594   0.0743761  -0.2225872  )
         7        Pt     tau(   7) = (  -0.1228955  -0.0001951  -0.2475154  )
         8        Pt     tau(   8) = (  -0.2197637   0.0091681   0.0854073  )
         9        Pt     tau(   9) = (   0.0330911  -0.0441291   0.0801131  )
        10        Pt     tau(  10) = (   0.0491291   0.0646048  -0.0808302  )
        11        Pt     tau(  11) = (   0.1287008   0.0142973   0.0093610  )
        12        Pt     tau(  12) = (   0.0518230  -0.1829458   0.0824461  )
        13        Pt     tau(  13) = (  -0.1822207  -0.0402043  -0.1365518  )
        14        Pt     tau(  14) = (  -0.1201048  -0.1320620   0.2269707  )
        15        Pt     tau(  15) = (  -0.1983082  -0.1169359   0.1192609  )
        16        Pt     tau(  16) = (   0.2440326   0.0271025  -0.0476047  )
        17        Pt     tau(  17) = (   0.1290584   0.1927647   0.0443245  )
        18        Pt     tau(  18) = (   0.2135846  -0.0300063  -0.1636459  )
        19        Pt     tau(  19) = (  -0.0897591   0.0526247  -0.0122408  )
        20        Pt     tau(  20) = (  -0.2075845   0.1372807   0.0575960  )
        21        Pt     tau(  21) = (  -0.1411324  -0.1650367  -0.0947430  )
        22        Pt     tau(  22) = (   0.0307591   0.2155105   0.1284569  )
        23        Pt     tau(  23) = (  -0.0041385  -0.0639995  -0.2278837  )
        24        Pt     tau(  24) = (   0.2250708  -0.0497479   0.0663971  )
        25        Pt     tau(  25) = (   0.1817836   0.0957590  -0.1403853  )
        26        Pt     tau(  26) = (   0.2264293   0.1613652  -0.0350790  )
        27        Pt     tau(  27) = (  -0.0226405   0.1705821  -0.1261205  )
        28        Pt     tau(  28) = (   0.0209856   0.0849757   0.0491502  )
        29        Pt     tau(  29) = (  -0.0883456  -0.0019012   0.1024562  )
        30        Pt     tau(  30) = (   0.1911192   0.0150871   0.1771462  )
        31        Pt     tau(  31) = (   0.1788048  -0.1732757   0.0477566  )
        32        Pt     tau(  32) = (  -0.2068244  -0.0816975  -0.0116181  )
        33        Pt     tau(  33) = (  -0.0673445  -0.0087036   0.2291641  )
        34        Pt     tau(  34) = (  -0.1499764   0.0903448   0.1730575  )
        35        Pt     tau(  35) = (  -0.0723175  -0.0783688  -0.0015631  )
        36        Pt     tau(  36) = (   0.1071662  -0.1076717  -0.1653762  )
        37        Pt     tau(  37) = (  -0.2144441   0.0473876  -0.0423313  )
        38        Pt     tau(  38) = (   0.0972794   0.0185829  -0.2049124  )
        39        Pt     tau(  39) = (   0.2155426   0.0882086   0.0721094  )
        40        Pt     tau(  40) = (  -0.1702319  -0.2034498   0.0252879  )
        41        Pt     tau(  41) = (   0.1336245  -0.1019396   0.1502963  )
        42        Pt     tau(  42) = (  -0.0758705  -0.1668484   0.1080047  )
        43        Pt     tau(  43) = (   0.0079484  -0.1219805   0.1959485  )
        44        Pt     tau(  44) = (   0.1037375   0.1868488  -0.0839773  )
        45        Pt     tau(  45) = (   0.0017444   0.2074431   0.0000792  )
        46        Pt     tau(  46) = (  -0.1215282   0.1736896  -0.0386375  )
        47        Pt     tau(  47) = (   0.0626965  -0.0004635   0.2036672  )
        48        Pt     tau(  48) = (  -0.0909504   0.1786814   0.0934296  )
        49        Pt     tau(  49) = (   0.0822413   0.1508590  -0.2092750  )
        50        Pt     tau(  50) = (  -0.0178829   0.1048538   0.1823844  )
        51        Pt     tau(  51) = (  -0.0107406  -0.1608974  -0.1338216  )
        52        Pt     tau(  52) = (   0.1950111  -0.1012686  -0.0576983  )
        53        Pt     tau(  53) = (   0.0534059  -0.0674788  -0.0550154  )
        54        Pt     tau(  54) = (   0.1105476   0.1144271   0.1531970  )
        55        Pt     tau(  55) = (  -0.1994357  -0.0265203   0.2135386  )

   Crystallographic axes

     site n.     atom                  positions (cryst. coord.)
         1        Pt     tau(   1) = ( -0.1184603 -0.1286729 -0.2144120  )
         2        Pt     tau(   2) = (  0.0880635 -0.1904335 -0.0477653  )
         3        Pt     tau(   3) = ( -0.0411512 -0.2086088 -0.0138204  )
         4        Pt     tau(   4) = ( -0.0536263 -0.0138010 -0.1168783  )
         5        Pt     tau(   5) = ( -0.1338427  0.0924183 -0.1447171  )
         6        Pt     tau(   6) = ( -0.0218594  0.0743761 -0.2225872  )
         7        Pt     tau(   7) = ( -0.1228955 -0.0001951 -0.2475154  )
         8        Pt     tau(   8) = ( -0.2197637  0.0091681  0.0854073  )
         9        Pt     tau(   9) = (  0.0330911 -0.0441291  0.0801131  )
        10        Pt     tau(  10) = (  0.0491291  0.0646048 -0.0808302  )
        11        Pt     tau(  11) = (  0.1287008  0.0142973  0.0093610  )
        12        Pt     tau(  12) = (  0.0518230 -0.1829458  0.0824461  )
        13        Pt     tau(  13) = ( -0.1822207 -0.0402043 -0.1365518  )
        14        Pt     tau(  14) = ( -0.1201048 -0.1320620  0.2269707  )
        15        Pt     tau(  15) = ( -0.1983082 -0.1169359  0.1192609  )
        16        Pt     tau(  16) = (  0.2440326  0.0271025 -0.0476047  )
        17        Pt     tau(  17) = (  0.1290584  0.1927647  0.0443245  )
        18        Pt     tau(  18) = (  0.2135846 -0.0300063 -0.1636459  )
        19        Pt     tau(  19) = ( -0.0897591  0.0526247 -0.0122408  )
        20        Pt     tau(  20) = ( -0.2075845  0.1372807  0.0575960  )
        21        Pt     tau(  21) = ( -0.1411324 -0.1650367 -0.0947430  )
        22        Pt     tau(  22) = (  0.0307591  0.2155105  0.1284569  )
        23        Pt     tau(  23) = ( -0.0041385 -0.0639995 -0.2278837  )
        24        Pt     tau(  24) = (  0.2250708 -0.0497479  0.0663971  )
        25        Pt     tau(  25) = (  0.1817836  0.0957590 -0.1403853  )
        26        Pt     tau(  26) = (  0.2264293  0.1613652 -0.0350790  )
        27        Pt     tau(  27) = ( -0.0226405  0.1705821 -0.1261205  )
        28        Pt     tau(  28) = (  0.0209856  0.0849757  0.0491502  )
        29        Pt     tau(  29) = ( -0.0883456 -0.0019012  0.1024562  )
        30        Pt     tau(  30) = (  0.1911192  0.0150871  0.1771462  )
        31        Pt     tau(  31) = (  0.1788048 -0.1732757  0.0477566  )
        32        Pt     tau(  32) = ( -0.2068244 -0.0816975 -0.0116181  )
        33        Pt     tau(  33) = ( -0.0673445 -0.0087036  0.2291641  )
        34        Pt     tau(  34) = ( -0.1499764  0.0903448  0.1730575  )
        35        Pt     tau(  35) = ( -0.0723175 -0.0783688 -0.0015631  )
        36        Pt     tau(  36) = (  0.1071662 -0.1076717 -0.1653762  )
        37        Pt     tau(  37) = ( -0.2144441  0.0473876 -0.0423313  )
        38        Pt     tau(  38) = (  0.0972794  0.0185829 -0.2049124  )
        39        Pt     tau(  39) = (  0.2155426  0.0882086  0.0721094  )
        40        Pt     tau(  40) = ( -0.1702319 -0.2034498  0.0252879  )
        41        Pt     tau(  41) = (  0.1336245 -0.1019396  0.1502963  )
        42        Pt     tau(  42) = ( -0.0758705 -0.1668484  0.1080047  )
        43        Pt     tau(  43) = (  0.0079484 -0.1219805  0.1959485  )
        44        Pt     tau(  44) = (  0.1037375  0.1868488 -0.0839773  )
        45        Pt     tau(  45) = (  0.0017444  0.2074431  0.0000792  )
        46        Pt     tau(  46) = ( -0.1215282  0.1736896 -0.0386375  )
        47        Pt     tau(  47) = (  0.0626965 -0.0004635  0.2036672  )
        48        Pt     tau(  48) = ( -0.0909504  0.1786814  0.0934296  )
        49        Pt     tau(  49) = (  0.0822413  0.1508590 -0.2092750  )
        50        Pt     tau(  50) = ( -0.0178829  0.1048538  0.1823844  )
        51        Pt     tau(  51) = ( -0.0107406 -0.1608974 -0.1338216  )
        52        Pt     tau(  52) = (  0.1950111 -0.1012686 -0.0576983  )
        53        Pt     tau(  53) = (  0.0534059 -0.0674788 -0.0550154  )
        54        Pt     tau(  54) = (  0.1105476  0.1144271  0.1531970  )
        55        Pt     tau(  55) = ( -0.1994357 -0.0265203  0.2135386  )

     number of k points=     1  Gaussian smearing, width (Ry)=  0.0100
                       cart. coord. in units 2pi/alat
        k(    1) = (   0.0000000   0.0000000   0.0000000), wk =   1.0000000

                       cryst. coord.
        k(    1) = (   0.0000000   0.0000000   0.0000000), wk =   1.0000000

     Dense  grid:  4793960 G-vectors     FFT dimensions: ( 270, 270, 270)

     Smooth grid:  1694634 G-vectors     FFT dimensions: ( 192, 192, 192)

     Dynamical RAM for                 wfc:     106.67 MB

     Dynamical RAM for     wfc (w. buffer):     320.01 MB

     Dynamical RAM for           str. fact:       4.57 MB

     Dynamical RAM for           local pot:       0.00 MB

     Dynamical RAM for          nlocal pot:     200.01 MB

     Dynamical RAM for                qrad:       1.76 MB

     Dynamical RAM for          rho,v,vnew:      84.16 MB

     Dynamical RAM for               rhoin:      28.05 MB

     Dynamical RAM for            rho*nmix:     146.30 MB

     Dynamical RAM for           G-vectors:      17.95 MB

     Dynamical RAM for          h,s,v(r/c):       0.40 MB

     Dynamical RAM for          <psi|beta>:       3.99 MB

     Dynamical RAM for      wfcinit/wfcrot:     219.72 MB

     Dynamical RAM for           addusdens:    1106.40 MB

     Dynamical RAM for          addusforce:    1600.60 MB

     Estimated static dynamical RAM per process >     722.39 MB

     Estimated max dynamical RAM per process >       2.41 GB

     Estimated total dynamical RAM >      38.58 GB
     Generating pointlists ...
     new r_m :   0.0524 (alat units)  1.9801 (a.u.) for type    1
     Cannot read rho : file not found

     Initial potential from superposition of free atoms

     starting charge     852.4994, renormalised to     880.0000

     negative rho (up, down):  5.280E+00 5.175E+00


---------------------------------------------------------------------------------
Carrying out rVV10 run using the following parameters:
Nqs =      20    Nr_points =    1024   r_max =   100.000
b_value =  6.30000    beta =  0.00901
     q_mesh =  0.00010000  0.00030000  0.00058939  0.00100810
               0.00161396  0.00249058  0.00375900  0.00559430
               0.00824984  0.01209221  0.01765183  0.02569619
               0.03733578  0.05417739  0.07854596  0.11380545
               0.16482331  0.23864234  0.34545298  0.50000000

Gradients computed in Reciprocal space

---------------------------------------------------------------------------------




     ----------------------------------------------------------------

     Non-local correlation energy =              9.708931656075286

     ----------------------------------------------------------------

     Message from routine qexsd_readschema :
     xml data file ./out/calc.save/data-file-schema.xml not found
     Cannot read wfcs: file not found
     Starting wfcs are  660 randomized atomic wfcs

     total cpu time spent up to now is     5853.5 secs

     Self-consistent Calculation

     iteration #  1     ecut=    60.00 Ry     beta= 0.20
     CG style diagonalization

---- Real-time Memory Report at c_bands before calling an iterative solver
          1328 MiB given to the printing process from OS
             0 MiB allocation reported by mallinfo(arena+hblkhd)
        201717 MiB available memory on the node where the printing process lives
------------------
     c_bands:  2 eigenvalues not converged
     c_bands:  1 eigenvalues not converged
     ethr =  1.00E-05,  avg # of iterations = 27.2

     negative rho (up, down):  5.081E+00 4.992E+00


     ----------------------------------------------------------------

     Non-local correlation energy =              9.330081825667801

     ----------------------------------------------------------------


     total cpu time spent up to now is    48042.0 secs

     total energy              =  -11533.87164190 Ry
     estimated scf accuracy    <     248.39644269 Ry

     total magnetization       =     4.17 Bohr mag/cell
     absolute magnetization    =     4.45 Bohr mag/cell

     iteration #  2     ecut=    60.00 Ry     beta= 0.20
     CG style diagonalization

---- Real-time Memory Report at c_bands before calling an iterative solver
          1916 MiB given to the printing process from OS
             0 MiB allocation reported by mallinfo(arena+hblkhd)
        207249 MiB available memory on the node where the printing process lives
------------------
     ethr =  1.00E-02,  avg # of iterations =  4.8

     negative rho (up, down):  5.045E+00 4.962E+00


     ----------------------------------------------------------------

     Non-local correlation energy =              9.285277380655995

     ----------------------------------------------------------------


     total cpu time spent up to now is    55510.8 secs

     total energy              =  -11564.41638563 Ry
     estimated scf accuracy    <     338.68867610 Ry

     total magnetization       =     1.16 Bohr mag/cell
     absolute magnetization    =     5.01 Bohr mag/cell

     iteration #  3     ecut=    60.00 Ry     beta= 0.20
     CG style diagonalization

---- Real-time Memory Report at c_bands before calling an iterative solver
          1922 MiB given to the printing process from OS
             0 MiB allocation reported by mallinfo(arena+hblkhd)
        207116 MiB available memory on the node where the printing process lives
------------------
     ethr =  1.00E-02,  avg # of iterations =  3.7

     negative rho (up, down):  4.999E+00 4.924E+00


     ----------------------------------------------------------------

     Non-local correlation energy =              9.251207463071417

     ----------------------------------------------------------------


     total cpu time spent up to now is    61056.5 secs

     total energy              =  -11586.61622194 Ry
     estimated scf accuracy    <      28.40018060 Ry

     total magnetization       =     2.42 Bohr mag/cell
     absolute magnetization    =     5.64 Bohr mag/cell

     iteration #  4     ecut=    60.00 Ry     beta= 0.20
     CG style diagonalization

---- Real-time Memory Report at c_bands before calling an iterative solver
          1929 MiB given to the printing process from OS
             0 MiB allocation reported by mallinfo(arena+hblkhd)
        206534 MiB available memory on the node where the printing process lives
------------------
     ethr =  3.23E-03,  avg # of iterations =  3.4

     negative rho (up, down):  4.983E+00 4.912E+00


     ----------------------------------------------------------------

     Non-local correlation energy =              9.241349724036727

     ----------------------------------------------------------------


     total cpu time spent up to now is    65989.9 secs

     total energy              =  -11588.59121290 Ry
     estimated scf accuracy    <      57.64419100 Ry

     total magnetization       =     2.89 Bohr mag/cell
     absolute magnetization    =     3.82 Bohr mag/cell

     iteration #  5     ecut=    60.00 Ry     beta= 0.20
     CG style diagonalization

---- Real-time Memory Report at c_bands before calling an iterative solver
          1935 MiB given to the printing process from OS
             0 MiB allocation reported by mallinfo(arena+hblkhd)
        207252 MiB available memory on the node where the printing process lives
------------------
     ethr =  3.23E-03,  avg # of iterations =  3.0

     negative rho (up, down):  4.972E+00 4.903E+00


     ----------------------------------------------------------------

     Non-local correlation energy =              9.235555834968878

     ----------------------------------------------------------------


     total cpu time spent up to now is    70409.5 secs

     total energy              =  -11589.46691212 Ry
     estimated scf accuracy    <      53.48403266 Ry

     total magnetization       =     2.52 Bohr mag/cell
     absolute magnetization    =     2.85 Bohr mag/cell

     iteration #  6     ecut=    60.00 Ry     beta= 0.20
     CG style diagonalization

---- Real-time Memory Report at c_bands before calling an iterative solver
          1942 MiB given to the printing process from OS
             0 MiB allocation reported by mallinfo(arena+hblkhd)
        207025 MiB available memory on the node where the printing process lives
------------------
     ethr =  3.23E-03,  avg # of iterations =  3.0

     negative rho (up, down):  4.959E+00 4.894E+00


     ----------------------------------------------------------------

     Non-local correlation energy =              9.230381523132824

     ----------------------------------------------------------------


     total cpu time spent up to now is    74930.7 secs

     total energy              =  -11590.05928318 Ry
     estimated scf accuracy    <      23.56361612 Ry

     total magnetization       =     2.43 Bohr mag/cell
     absolute magnetization    =     2.72 Bohr mag/cell

     iteration #  7     ecut=    60.00 Ry     beta= 0.20
     CG style diagonalization

---- Real-time Memory Report at c_bands before calling an iterative solver
          1948 MiB given to the printing process from OS
             0 MiB allocation reported by mallinfo(arena+hblkhd)
        206430 MiB available memory on the node where the printing process lives
------------------
     ethr =  2.68E-03,  avg # of iterations =  3.0

     negative rho (up, down):  4.940E+00 4.881E+00


     ----------------------------------------------------------------

     Non-local correlation energy =              9.224245552750020

     ----------------------------------------------------------------


     total cpu time spent up to now is    79409.3 secs

     total energy              =  -11590.14731642 Ry
     estimated scf accuracy    <      22.20200396 Ry

     total magnetization       =     2.37 Bohr mag/cell
     absolute magnetization    =     2.66 Bohr mag/cell

     iteration #  8     ecut=    60.00 Ry     beta= 0.20
     CG style diagonalization

---- Real-time Memory Report at c_bands before calling an iterative solver
          1955 MiB given to the printing process from OS
             0 MiB allocation reported by mallinfo(arena+hblkhd)
        205530 MiB available memory on the node where the printing process lives
------------------
     ethr =  2.52E-03,  avg # of iterations =  3.0

     negative rho (up, down):  4.921E+00 4.867E+00


     ----------------------------------------------------------------

     Non-local correlation energy =              9.218969173068457

     ----------------------------------------------------------------


     total cpu time spent up to now is    83879.3 secs

     total energy              =  -11590.42028310 Ry
     estimated scf accuracy    <      16.20776301 Ry

     total magnetization       =     2.00 Bohr mag/cell
     absolute magnetization    =     2.29 Bohr mag/cell

     iteration #  9     ecut=    60.00 Ry     beta= 0.20
     CG style diagonalization

---- Real-time Memory Report at c_bands before calling an iterative solver
          1961 MiB given to the printing process from OS
             0 MiB allocation reported by mallinfo(arena+hblkhd)
        204876 MiB available memory on the node where the printing process lives
------------------
     ethr =  1.84E-03,  avg # of iterations =  3.0

     negative rho (up, down):  4.915E+00 4.863E+00


     ----------------------------------------------------------------

     Non-local correlation energy =              9.217928914277101

     ----------------------------------------------------------------


     total cpu time spent up to now is    88324.2 secs

     total energy              =  -11590.55648578 Ry
     estimated scf accuracy    <      15.93445139 Ry

     total magnetization       =     2.14 Bohr mag/cell
     absolute magnetization    =     2.40 Bohr mag/cell

     iteration # 10     ecut=    60.00 Ry     beta= 0.20
     CG style diagonalization

---- Real-time Memory Report at c_bands before calling an iterative solver
          1968 MiB given to the printing process from OS
             0 MiB allocation reported by mallinfo(arena+hblkhd)
        389596 MiB available memory on the node where the printing process lives
------------------
     ethr =  1.81E-03,  avg # of iterations =  3.0

     negative rho (up, down):  4.903E+00 4.854E+00


     ----------------------------------------------------------------

     Non-local correlation energy =              9.215765033042290

     ----------------------------------------------------------------


     total cpu time spent up to now is    92914.0 secs

     total energy              =  -11590.75581269 Ry
     estimated scf accuracy    <       3.05502536 Ry

     total magnetization       =     1.60 Bohr mag/cell
     absolute magnetization    =     1.91 Bohr mag/cell

     iteration # 11     ecut=    60.00 Ry     beta= 0.20
     CG style diagonalization

---- Real-time Memory Report at c_bands before calling an iterative solver
          1968 MiB given to the printing process from OS
             0 MiB allocation reported by mallinfo(arena+hblkhd)
        370469 MiB available memory on the node where the printing process lives
------------------
     ethr =  3.47E-04,  avg # of iterations =  3.1

     negative rho (up, down):  4.887E+00 4.845E+00


     ----------------------------------------------------------------

     Non-local correlation energy =              9.214995751193060

     ----------------------------------------------------------------


     total cpu time spent up to now is    97626.6 secs

     total energy              =  -11590.75685096 Ry
     estimated scf accuracy    <       1.87072078 Ry

     total magnetization       =     1.52 Bohr mag/cell
     absolute magnetization    =     1.81 Bohr mag/cell

     iteration # 12     ecut=    60.00 Ry     beta= 0.20
     CG style diagonalization

---- Real-time Memory Report at c_bands before calling an iterative solver
          1968 MiB given to the printing process from OS
             0 MiB allocation reported by mallinfo(arena+hblkhd)
        265521 MiB available memory on the node where the printing process lives
------------------
     ethr =  2.13E-04,  avg # of iterations =  3.0

     negative rho (up, down):  4.877E+00 4.838E+00


     ----------------------------------------------------------------

     Non-local correlation energy =              9.214897678162691

     ----------------------------------------------------------------


     total cpu time spent up to now is   102022.8 secs

     total energy              =  -11590.73434449 Ry
     estimated scf accuracy    <       1.23590741 Ry

     total magnetization       =     1.47 Bohr mag/cell
     absolute magnetization    =     1.73 Bohr mag/cell

     iteration # 13     ecut=    60.00 Ry     beta= 0.20
     CG style diagonalization

---- Real-time Memory Report at c_bands before calling an iterative solver
          1968 MiB given to the printing process from OS
             0 MiB allocation reported by mallinfo(arena+hblkhd)
        200192 MiB available memory on the node where the printing process lives
------------------
     ethr =  1.40E-04,  avg # of iterations =  3.0

     negative rho (up, down):  4.864E+00 4.831E+00


     ----------------------------------------------------------------

     Non-local correlation energy =              9.214174384835074

     ----------------------------------------------------------------


     total cpu time spent up to now is   106506.3 secs

     total energy              =  -11590.73254527 Ry
     estimated scf accuracy    <       1.17538126 Ry

     total magnetization       =     1.45 Bohr mag/cell
     absolute magnetization    =     1.70 Bohr mag/cell

     iteration # 14     ecut=    60.00 Ry     beta= 0.20
     CG style diagonalization

---- Real-time Memory Report at c_bands before calling an iterative solver
          1968 MiB given to the printing process from OS
             0 MiB allocation reported by mallinfo(arena+hblkhd)
        193196 MiB available memory on the node where the printing process lives
------------------
     ethr =  1.34E-04,  avg # of iterations =  3.1

     negative rho (up, down):  4.852E+00 4.825E+00


     ----------------------------------------------------------------

     Non-local correlation energy =              9.213481796266830

     ----------------------------------------------------------------


     total cpu time spent up to now is   111079.2 secs

     total energy              =  -11590.75135587 Ry
     estimated scf accuracy    <       0.24459811 Ry

     total magnetization       =     1.19 Bohr mag/cell
     absolute magnetization    =     1.44 Bohr mag/cell

     iteration # 15     ecut=    60.00 Ry     beta= 0.20
     CG style diagonalization

---- Real-time Memory Report at c_bands before calling an iterative solver
          1968 MiB given to the printing process from OS
             0 MiB allocation reported by mallinfo(arena+hblkhd)
        187956 MiB available memory on the node where the printing process lives
------------------
     c_bands:  3 eigenvalues not converged
     c_bands:  3 eigenvalues not converged
     ethr =  2.78E-05,  avg # of iterations =  3.4

     negative rho (up, down):  4.847E+00 4.823E+00


     ----------------------------------------------------------------

     Non-local correlation energy =              9.213775174964491

     ----------------------------------------------------------------


     total cpu time spent up to now is   116052.5 secs

     total energy              =  -11590.74144211 Ry
     estimated scf accuracy    <       0.37523846 Ry

     total magnetization       =     1.13 Bohr mag/cell
     absolute magnetization    =     1.35 Bohr mag/cell

     iteration # 16     ecut=    60.00 Ry     beta= 0.20
     CG style diagonalization

---- Real-time Memory Report at c_bands before calling an iterative solver
          1968 MiB given to the printing process from OS
             0 MiB allocation reported by mallinfo(arena+hblkhd)
        182964 MiB available memory on the node where the printing process lives
------------------
     ethr =  2.78E-05,  avg # of iterations =  3.0

     negative rho (up, down):  4.839E+00 4.819E+00


     ----------------------------------------------------------------

     Non-local correlation energy =              9.211826661576213

     ----------------------------------------------------------------


     total cpu time spent up to now is   120531.0 secs

     total energy              =  -11590.74695179 Ry
     estimated scf accuracy    <       0.27334211 Ry

     total magnetization       =     1.00 Bohr mag/cell
     absolute magnetization    =     1.22 Bohr mag/cell

     iteration # 17     ecut=    60.00 Ry     beta= 0.20
     CG style diagonalization

---- Real-time Memory Report at c_bands before calling an iterative solver
          1968 MiB given to the printing process from OS
             0 MiB allocation reported by mallinfo(arena+hblkhd)
        183335 MiB available memory on the node where the printing process lives
------------------
     ethr =  2.78E-05,  avg # of iterations =  3.0

     negative rho (up, down):  4.838E+00 4.819E+00


     ----------------------------------------------------------------

     Non-local correlation energy =              9.211478740468621

     ----------------------------------------------------------------


     total cpu time spent up to now is   124956.4 secs

     total energy              =  -11590.74662043 Ry
     estimated scf accuracy    <       0.23611290 Ry

     total magnetization       =     0.95 Bohr mag/cell
     absolute magnetization    =     1.14 Bohr mag/cell

     iteration # 18     ecut=    60.00 Ry     beta= 0.20
     CG style diagonalization

---- Real-time Memory Report at c_bands before calling an iterative solver
          1968 MiB given to the printing process from OS
             0 MiB allocation reported by mallinfo(arena+hblkhd)
        185643 MiB available memory on the node where the printing process lives
------------------
     ethr =  2.68E-05,  avg # of iterations =  3.0

     negative rho (up, down):  4.834E+00 4.817E+00


     ----------------------------------------------------------------

     Non-local correlation energy =              9.210235257937805

     ----------------------------------------------------------------


     total cpu time spent up to now is   129384.5 secs

     total energy              =  -11590.74436010 Ry
     estimated scf accuracy    <       0.51814932 Ry

     total magnetization       =     0.90 Bohr mag/cell
     absolute magnetization    =     1.08 Bohr mag/cell

     iteration # 19     ecut=    60.00 Ry     beta= 0.20
     CG style diagonalization

---- Real-time Memory Report at c_bands before calling an iterative solver
          1968 MiB given to the printing process from OS
             0 MiB allocation reported by mallinfo(arena+hblkhd)
        186520 MiB available memory on the node where the printing process lives
------------------
     ethr =  2.68E-05,  avg # of iterations =  3.1

     negative rho (up, down):  4.834E+00 4.818E+00


     ----------------------------------------------------------------

     Non-local correlation energy =              9.210117722641336

     ----------------------------------------------------------------


     total cpu time spent up to now is   133906.2 secs

     total energy              =  -11590.75344645 Ry
     estimated scf accuracy    <       0.05437521 Ry

     total magnetization       =     0.85 Bohr mag/cell
     absolute magnetization    =     1.02 Bohr mag/cell

     iteration # 20     ecut=    60.00 Ry     beta= 0.20
     CG style diagonalization

---- Real-time Memory Report at c_bands before calling an iterative solver
          1968 MiB given to the printing process from OS
             0 MiB allocation reported by mallinfo(arena+hblkhd)
        189597 MiB available memory on the node where the printing process lives
------------------
     ethr =  6.18E-06,  avg # of iterations =  3.2

     negative rho (up, down):  4.831E+00 4.818E+00


     ----------------------------------------------------------------

     Non-local correlation energy =              9.209333630887071

     ----------------------------------------------------------------


     total cpu time spent up to now is   138662.6 secs

     total energy              =  -11590.75360276 Ry
     estimated scf accuracy    <       0.02911205 Ry

     total magnetization       =     0.81 Bohr mag/cell
     absolute magnetization    =     0.97 Bohr mag/cell

     iteration # 21     ecut=    60.00 Ry     beta= 0.20
     CG style diagonalization

---- Real-time Memory Report at c_bands before calling an iterative solver
          1968 MiB given to the printing process from OS
             0 MiB allocation reported by mallinfo(arena+hblkhd)
        188370 MiB available memory on the node where the printing process lives
------------------
     c_bands:  1 eigenvalues not converged
     ethr =  3.31E-06,  avg # of iterations =  3.2

     negative rho (up, down):  4.830E+00 4.818E+00


     ----------------------------------------------------------------

     Non-local correlation energy =              9.208736544403155

     ----------------------------------------------------------------


     total cpu time spent up to now is   143293.3 secs

     total energy              =  -11590.75338731 Ry
     estimated scf accuracy    <       0.01976666 Ry

     total magnetization       =     0.74 Bohr mag/cell
     absolute magnetization    =     0.90 Bohr mag/cell

     iteration # 22     ecut=    60.00 Ry     beta= 0.20
     CG style diagonalization

---- Real-time Memory Report at c_bands before calling an iterative solver
          1968 MiB given to the printing process from OS
             0 MiB allocation reported by mallinfo(arena+hblkhd)
        189137 MiB available memory on the node where the printing process lives
------------------
     c_bands:  1 eigenvalues not converged
     c_bands:  1 eigenvalues not converged
     ethr =  2.25E-06,  avg # of iterations =  3.3

     negative rho (up, down):  4.830E+00 4.818E+00


     ----------------------------------------------------------------

     Non-local correlation energy =              9.208572838091118

     ----------------------------------------------------------------


     total cpu time spent up to now is   148151.7 secs

     total energy              =  -11590.75360185 Ry
     estimated scf accuracy    <       0.01756652 Ry

     total magnetization       =     0.70 Bohr mag/cell
     absolute magnetization    =     0.85 Bohr mag/cell

     iteration # 23     ecut=    60.00 Ry     beta= 0.20
     CG style diagonalization

---- Real-time Memory Report at c_bands before calling an iterative solver
          1968 MiB given to the printing process from OS
             0 MiB allocation reported by mallinfo(arena+hblkhd)
        187227 MiB available memory on the node where the printing process lives
------------------
     c_bands:  1 eigenvalues not converged
     c_bands:  1 eigenvalues not converged
     ethr =  2.00E-06,  avg # of iterations =  3.0

     negative rho (up, down):  4.829E+00 4.819E+00


     ----------------------------------------------------------------

     Non-local correlation energy =              9.208062115809204

     ----------------------------------------------------------------


     total cpu time spent up to now is   152344.9 secs

     total energy              =  -11590.75351053 Ry
     estimated scf accuracy    <       0.00352915 Ry

     total magnetization       =     0.68 Bohr mag/cell
     absolute magnetization    =     0.82 Bohr mag/cell

     iteration # 24     ecut=    60.00 Ry     beta= 0.20
     CG style diagonalization

---- Real-time Memory Report at c_bands before calling an iterative solver
          1968 MiB given to the printing process from OS
             0 MiB allocation reported by mallinfo(arena+hblkhd)
        189459 MiB available memory on the node where the printing process lives
------------------
     c_bands:  2 eigenvalues not converged
     c_bands:  1 eigenvalues not converged
     ethr =  4.01E-07,  avg # of iterations =  3.3

     negative rho (up, down):  4.828E+00 4.819E+00


     ----------------------------------------------------------------

     Non-local correlation energy =              9.207678994653076

     ----------------------------------------------------------------


     total cpu time spent up to now is   156891.5 secs

     total energy              =  -11590.75358770 Ry
     estimated scf accuracy    <       0.00242166 Ry

     total magnetization       =     0.63 Bohr mag/cell
     absolute magnetization    =     0.76 Bohr mag/cell

     iteration # 25     ecut=    60.00 Ry     beta= 0.20
     CG style diagonalization

---- Real-time Memory Report at c_bands before calling an iterative solver
          1968 MiB given to the printing process from OS
             0 MiB allocation reported by mallinfo(arena+hblkhd)
        187834 MiB available memory on the node where the printing process lives
------------------
     c_bands:  1 eigenvalues not converged
     ethr =  2.75E-07,  avg # of iterations =  3.0

     negative rho (up, down):  4.828E+00 4.820E+00


     ----------------------------------------------------------------

     Non-local correlation energy =              9.207329997167186

     ----------------------------------------------------------------


     total cpu time spent up to now is   161039.7 secs

     total energy              =  -11590.75382225 Ry
     estimated scf accuracy    <       0.00079796 Ry

     total magnetization       =     0.59 Bohr mag/cell
     absolute magnetization    =     0.71 Bohr mag/cell

     iteration # 26     ecut=    60.00 Ry     beta= 0.20
     CG style diagonalization

---- Real-time Memory Report at c_bands before calling an iterative solver
          1968 MiB given to the printing process from OS
             0 MiB allocation reported by mallinfo(arena+hblkhd)
        189210 MiB available memory on the node where the printing process lives
------------------
     ethr =  9.07E-08,  avg # of iterations =  3.1

     negative rho (up, down):  4.829E+00 4.821E+00


     ----------------------------------------------------------------

     Non-local correlation energy =              9.207068424568423

     ----------------------------------------------------------------


     total cpu time spent up to now is   165315.0 secs

     total energy              =  -11590.75388912 Ry
     estimated scf accuracy    <       0.00107851 Ry

     total magnetization       =     0.55 Bohr mag/cell
     absolute magnetization    =     0.66 Bohr mag/cell

     iteration # 27     ecut=    60.00 Ry     beta= 0.20
     CG style diagonalization

---- Real-time Memory Report at c_bands before calling an iterative solver
          1968 MiB given to the printing process from OS
             0 MiB allocation reported by mallinfo(arena+hblkhd)
        189698 MiB available memory on the node where the printing process lives
------------------
     ethr =  9.07E-08,  avg # of iterations =  3.2

     negative rho (up, down):  4.829E+00 4.822E+00


     ----------------------------------------------------------------

     Non-local correlation energy =              9.206851779563785

     ----------------------------------------------------------------


     total cpu time spent up to now is   169646.5 secs

     total energy              =  -11590.75394067 Ry
     estimated scf accuracy    <       0.00070680 Ry

     total magnetization       =     0.51 Bohr mag/cell
     absolute magnetization    =     0.61 Bohr mag/cell

     iteration # 28     ecut=    60.00 Ry     beta= 0.20
     CG style diagonalization

---- Real-time Memory Report at c_bands before calling an iterative solver
          1968 MiB given to the printing process from OS
             0 MiB allocation reported by mallinfo(arena+hblkhd)
        190743 MiB available memory on the node where the printing process lives
------------------
     ethr =  8.03E-08,  avg # of iterations =  3.2

     negative rho (up, down):  4.830E+00 4.823E+00


     ----------------------------------------------------------------

     Non-local correlation energy =              9.206778041333660

     ----------------------------------------------------------------


     total cpu time spent up to now is   174123.4 secs

     total energy              =  -11590.75393865 Ry
     estimated scf accuracy    <       0.00161974 Ry

     total magnetization       =     0.47 Bohr mag/cell
     absolute magnetization    =     0.57 Bohr mag/cell

     iteration # 29     ecut=    60.00 Ry     beta= 0.20
     CG style diagonalization

---- Real-time Memory Report at c_bands before calling an iterative solver
          1968 MiB given to the printing process from OS
             0 MiB allocation reported by mallinfo(arena+hblkhd)
        188402 MiB available memory on the node where the printing process lives
------------------
     ethr =  8.03E-08,  avg # of iterations =  3.0

     negative rho (up, down):  4.830E+00 4.824E+00


     ----------------------------------------------------------------

     Non-local correlation energy =              9.206637395467727

     ----------------------------------------------------------------


     total cpu time spent up to now is   178287.6 secs

     total energy              =  -11590.75396895 Ry
     estimated scf accuracy    <       0.00074959 Ry

     total magnetization       =     0.46 Bohr mag/cell
     absolute magnetization    =     0.55 Bohr mag/cell

     iteration # 30     ecut=    60.00 Ry     beta= 0.20
     CG style diagonalization

---- Real-time Memory Report at c_bands before calling an iterative solver
          1968 MiB given to the printing process from OS
             0 MiB allocation reported by mallinfo(arena+hblkhd)
        187472 MiB available memory on the node where the printing process lives
------------------
     c_bands:  1 eigenvalues not converged
     c_bands:  1 eigenvalues not converged
     ethr =  8.03E-08,  avg # of iterations =  3.1

     negative rho (up, down):  4.831E+00 4.825E+00


     ----------------------------------------------------------------

     Non-local correlation energy =              9.206497541969592

     ----------------------------------------------------------------


     total cpu time spent up to now is   182632.7 secs

     total energy              =  -11590.75397006 Ry
     estimated scf accuracy    <       0.00064871 Ry

     total magnetization       =     0.44 Bohr mag/cell
     absolute magnetization    =     0.52 Bohr mag/cell

     iteration # 31     ecut=    60.00 Ry     beta= 0.20
     CG style diagonalization

---- Real-time Memory Report at c_bands before calling an iterative solver
          1968 MiB given to the printing process from OS
             0 MiB allocation reported by mallinfo(arena+hblkhd)
        189161 MiB available memory on the node where the printing process lives
------------------
     c_bands:  1 eigenvalues not converged
     ethr =  7.37E-08,  avg # of iterations =  3.1

     negative rho (up, down):  4.831E+00 4.826E+00


     ----------------------------------------------------------------

     Non-local correlation energy =              9.206407599794403

     ----------------------------------------------------------------


     total cpu time spent up to now is   187057.7 secs

     total energy              =  -11590.75398058 Ry
     estimated scf accuracy    <       0.00026517 Ry

     total magnetization       =     0.41 Bohr mag/cell
     absolute magnetization    =     0.48 Bohr mag/cell

     iteration # 32     ecut=    60.00 Ry     beta= 0.20
     CG style diagonalization

---- Real-time Memory Report at c_bands before calling an iterative solver
          1968 MiB given to the printing process from OS
             0 MiB allocation reported by mallinfo(arena+hblkhd)
        187096 MiB available memory on the node where the printing process lives
------------------
     ethr =  3.01E-08,  avg # of iterations =  3.0

     negative rho (up, down):  4.831E+00 4.827E+00


     ----------------------------------------------------------------

     Non-local correlation energy =              9.206353485799642

     ----------------------------------------------------------------


     total cpu time spent up to now is   191455.2 secs

     total energy              =  -11590.75398008 Ry
     estimated scf accuracy    <       0.00019973 Ry

     total magnetization       =     0.38 Bohr mag/cell
     absolute magnetization    =     0.46 Bohr mag/cell

     iteration # 33     ecut=    60.00 Ry     beta= 0.20
     CG style diagonalization

---- Real-time Memory Report at c_bands before calling an iterative solver
          1968 MiB given to the printing process from OS
             0 MiB allocation reported by mallinfo(arena+hblkhd)
        187567 MiB available memory on the node where the printing process lives
------------------
     ethr =  2.27E-08,  avg # of iterations =  3.0

     negative rho (up, down):  4.831E+00 4.827E+00


     ----------------------------------------------------------------

     Non-local correlation energy =              9.206317834391603

     ----------------------------------------------------------------


     total cpu time spent up to now is   196019.8 secs

     total energy              =  -11590.75398917 Ry
     estimated scf accuracy    <       0.00028059 Ry

     total magnetization       =     0.37 Bohr mag/cell
     absolute magnetization    =     0.44 Bohr mag/cell

     iteration # 34     ecut=    60.00 Ry     beta= 0.20
     CG style diagonalization

---- Real-time Memory Report at c_bands before calling an iterative solver
          1968 MiB given to the printing process from OS
             0 MiB allocation reported by mallinfo(arena+hblkhd)
        187567 MiB available memory on the node where the printing process lives
------------------
     ethr =  2.27E-08,  avg # of iterations =  3.0

     negative rho (up, down):  4.831E+00 4.827E+00


     ----------------------------------------------------------------

     Non-local correlation energy =              9.206274244531308

     ----------------------------------------------------------------


     total cpu time spent up to now is   200629.9 secs

     total energy              =  -11590.75400006 Ry
     estimated scf accuracy    <       0.00005213 Ry

     total magnetization       =     0.34 Bohr mag/cell
     absolute magnetization    =     0.41 Bohr mag/cell

     iteration # 35     ecut=    60.00 Ry     beta= 0.20
     CG style diagonalization

---- Real-time Memory Report at c_bands before calling an iterative solver
          1968 MiB given to the printing process from OS
             0 MiB allocation reported by mallinfo(arena+hblkhd)
        187376 MiB available memory on the node where the printing process lives
------------------
     ethr =  5.92E-09,  avg # of iterations =  3.0

     negative rho (up, down):  4.831E+00 4.827E+00


     ----------------------------------------------------------------

     Non-local correlation energy =              9.206271438029216

     ----------------------------------------------------------------


     total cpu time spent up to now is   205580.4 secs

     total energy              =  -11590.75400973 Ry
     estimated scf accuracy    <       0.00003120 Ry

     total magnetization       =     0.32 Bohr mag/cell
     absolute magnetization    =     0.38 Bohr mag/cell

     iteration # 36     ecut=    60.00 Ry     beta= 0.20
     CG style diagonalization

---- Real-time Memory Report at c_bands before calling an iterative solver
          1968 MiB given to the printing process from OS
             0 MiB allocation reported by mallinfo(arena+hblkhd)
        186195 MiB available memory on the node where the printing process lives
------------------
     ethr =  3.55E-09,  avg # of iterations =  3.0

     negative rho (up, down):  4.830E+00 4.827E+00


     ----------------------------------------------------------------

     Non-local correlation energy =              9.206270463683683

     ----------------------------------------------------------------


     total cpu time spent up to now is   210469.9 secs

     total energy              =  -11590.75401963 Ry
     estimated scf accuracy    <       0.00002562 Ry

     total magnetization       =     0.30 Bohr mag/cell
     absolute magnetization    =     0.36 Bohr mag/cell

     iteration # 37     ecut=    60.00 Ry     beta= 0.20
     CG style diagonalization

---- Real-time Memory Report at c_bands before calling an iterative solver
          1968 MiB given to the printing process from OS
             0 MiB allocation reported by mallinfo(arena+hblkhd)
        186458 MiB available memory on the node where the printing process lives
------------------
     ethr =  2.91E-09,  avg # of iterations =  3.0

     negative rho (up, down):  4.830E+00 4.827E+00


     ----------------------------------------------------------------

     Non-local correlation energy =              9.206281056485052

     ----------------------------------------------------------------


     total cpu time spent up to now is   215363.9 secs

     total energy              =  -11590.75403027 Ry
     estimated scf accuracy    <       0.00001810 Ry

     total magnetization       =     0.28 Bohr mag/cell
     absolute magnetization    =     0.33 Bohr mag/cell

     iteration # 38     ecut=    60.00 Ry     beta= 0.20
     CG style diagonalization

---- Real-time Memory Report at c_bands before calling an iterative solver
          1968 MiB given to the printing process from OS
             0 MiB allocation reported by mallinfo(arena+hblkhd)
        186848 MiB available memory on the node where the printing process lives
------------------
     ethr =  2.06E-09,  avg # of iterations =  3.0

     negative rho (up, down):  4.830E+00 4.827E+00


     ----------------------------------------------------------------

     Non-local correlation energy =              9.206289430389695

     ----------------------------------------------------------------


     total cpu time spent up to now is   220232.9 secs

     total energy              =  -11590.75403212 Ry
     estimated scf accuracy    <       0.00003044 Ry

     total magnetization       =     0.25 Bohr mag/cell
     absolute magnetization    =     0.29 Bohr mag/cell

     iteration # 39     ecut=    60.00 Ry     beta= 0.20
     CG style diagonalization

---- Real-time Memory Report at c_bands before calling an iterative solver
          1968 MiB given to the printing process from OS
             0 MiB allocation reported by mallinfo(arena+hblkhd)
        185651 MiB available memory on the node where the printing process lives
------------------
     ethr =  2.06E-09,  avg # of iterations =  3.0

     negative rho (up, down):  4.829E+00 4.827E+00


     ----------------------------------------------------------------

     Non-local correlation energy =              9.206303173061700

     ----------------------------------------------------------------


     total cpu time spent up to now is   225105.3 secs

     total energy              =  -11590.75403738 Ry
     estimated scf accuracy    <       0.00004968 Ry

     total magnetization       =     0.24 Bohr mag/cell
     absolute magnetization    =     0.29 Bohr mag/cell

     iteration # 40     ecut=    60.00 Ry     beta= 0.20
     CG style diagonalization

---- Real-time Memory Report at c_bands before calling an iterative solver
          1968 MiB given to the printing process from OS
             0 MiB allocation reported by mallinfo(arena+hblkhd)
        185983 MiB available memory on the node where the printing process lives
------------------
     ethr =  2.06E-09,  avg # of iterations =  3.0

     negative rho (up, down):  4.829E+00 4.827E+00


     ----------------------------------------------------------------

     Non-local correlation energy =              9.206326656023398

     ----------------------------------------------------------------


     total cpu time spent up to now is   230001.6 secs

     total energy              =  -11590.75404317 Ry
     estimated scf accuracy    <       0.00002061 Ry

     total magnetization       =     0.22 Bohr mag/cell
     absolute magnetization    =     0.26 Bohr mag/cell

     iteration # 41     ecut=    60.00 Ry     beta= 0.20
     CG style diagonalization

---- Real-time Memory Report at c_bands before calling an iterative solver
          1968 MiB given to the printing process from OS
             0 MiB allocation reported by mallinfo(arena+hblkhd)
        185579 MiB available memory on the node where the printing process lives
------------------
     ethr =  2.06E-09,  avg # of iterations =  3.0

     negative rho (up, down):  4.829E+00 4.827E+00


     ----------------------------------------------------------------

     Non-local correlation energy =              9.206342416275062

     ----------------------------------------------------------------


     total cpu time spent up to now is   234890.6 secs

     total energy              =  -11590.75404591 Ry
     estimated scf accuracy    <       0.00002199 Ry

     total magnetization       =     0.20 Bohr mag/cell
     absolute magnetization    =     0.24 Bohr mag/cell

     iteration # 42     ecut=    60.00 Ry     beta= 0.20
     CG style diagonalization

---- Real-time Memory Report at c_bands before calling an iterative solver
          1968 MiB given to the printing process from OS
             0 MiB allocation reported by mallinfo(arena+hblkhd)
        187238 MiB available memory on the node where the printing process lives
------------------
     ethr =  2.06E-09,  avg # of iterations =  3.0

     negative rho (up, down):  4.828E+00 4.827E+00


     ----------------------------------------------------------------

     Non-local correlation energy =              9.206361931478988

     ----------------------------------------------------------------


     total cpu time spent up to now is   239765.5 secs

     total energy              =  -11590.75404793 Ry
     estimated scf accuracy    <       0.00000824 Ry

     total magnetization       =     0.19 Bohr mag/cell
     absolute magnetization    =     0.22 Bohr mag/cell

     iteration # 43     ecut=    60.00 Ry     beta= 0.20
     CG style diagonalization

---- Real-time Memory Report at c_bands before calling an iterative solver
          1968 MiB given to the printing process from OS
             0 MiB allocation reported by mallinfo(arena+hblkhd)
        186736 MiB available memory on the node where the printing process lives
------------------
     ethr =  9.36E-10,  avg # of iterations =  3.0

     negative rho (up, down):  4.828E+00 4.827E+00


     ----------------------------------------------------------------

     Non-local correlation energy =              9.206379211105430

     ----------------------------------------------------------------


     total cpu time spent up to now is   244662.1 secs

     total energy              =  -11590.75404893 Ry
     estimated scf accuracy    <       0.00002236 Ry

     total magnetization       =     0.17 Bohr mag/cell
     absolute magnetization    =     0.20 Bohr mag/cell

     iteration # 44     ecut=    60.00 Ry     beta= 0.20
     CG style diagonalization

---- Real-time Memory Report at c_bands before calling an iterative solver
          1968 MiB given to the printing process from OS
             0 MiB allocation reported by mallinfo(arena+hblkhd)
        185489 MiB available memory on the node where the printing process lives
------------------
     ethr =  9.36E-10,  avg # of iterations =  3.0

     negative rho (up, down):  4.828E+00 4.827E+00


     ----------------------------------------------------------------

     Non-local correlation energy =              9.206402348703330

     ----------------------------------------------------------------


     total cpu time spent up to now is   249725.3 secs

     total energy              =  -11590.75405011 Ry
     estimated scf accuracy    <       0.00000576 Ry

     total magnetization       =     0.16 Bohr mag/cell
     absolute magnetization    =     0.19 Bohr mag/cell

     iteration # 45     ecut=    60.00 Ry     beta= 0.20
     CG style diagonalization

---- Real-time Memory Report at c_bands before calling an iterative solver
          1968 MiB given to the printing process from OS
             0 MiB allocation reported by mallinfo(arena+hblkhd)
        209271 MiB available memory on the node where the printing process lives
------------------
     ethr =  6.55E-10,  avg # of iterations =  3.0

     negative rho (up, down):  4.828E+00 4.827E+00


     ----------------------------------------------------------------

     Non-local correlation energy =              9.206421865952340

     ----------------------------------------------------------------


     total cpu time spent up to now is   254746.4 secs

     total energy              =  -11590.75405053 Ry
     estimated scf accuracy    <       0.00000311 Ry

     total magnetization       =     0.14 Bohr mag/cell
     absolute magnetization    =     0.17 Bohr mag/cell

     iteration # 46     ecut=    60.00 Ry     beta= 0.20
     CG style diagonalization

---- Real-time Memory Report at c_bands before calling an iterative solver
          1968 MiB given to the printing process from OS
             0 MiB allocation reported by mallinfo(arena+hblkhd)
        208270 MiB available memory on the node where the printing process lives
------------------
     ethr =  3.54E-10,  avg # of iterations =  3.0

     negative rho (up, down):  4.828E+00 4.827E+00


     ----------------------------------------------------------------

     Non-local correlation energy =              9.206439479771854

     ----------------------------------------------------------------


     total cpu time spent up to now is   259898.1 secs

     total energy              =  -11590.75405056 Ry
     estimated scf accuracy    <       0.00000281 Ry

     total magnetization       =     0.13 Bohr mag/cell
     absolute magnetization    =     0.15 Bohr mag/cell

     iteration # 47     ecut=    60.00 Ry     beta= 0.20
     CG style diagonalization

---- Real-time Memory Report at c_bands before calling an iterative solver
          1968 MiB given to the printing process from OS
             0 MiB allocation reported by mallinfo(arena+hblkhd)
        202869 MiB available memory on the node where the printing process lives
------------------
     ethr =  3.19E-10,  avg # of iterations =  3.0

     negative rho (up, down):  4.827E+00 4.827E+00


     ----------------------------------------------------------------

     Non-local correlation energy =              9.206454023074588

     ----------------------------------------------------------------


     total cpu time spent up to now is   265082.4 secs

     total energy              =  -11590.75405051 Ry
     estimated scf accuracy    <       0.00000237 Ry

     total magnetization       =     0.11 Bohr mag/cell
     absolute magnetization    =     0.13 Bohr mag/cell

     iteration # 48     ecut=    60.00 Ry     beta= 0.20
     CG style diagonalization

---- Real-time Memory Report at c_bands before calling an iterative solver
          1968 MiB given to the printing process from OS
             0 MiB allocation reported by mallinfo(arena+hblkhd)
        202468 MiB available memory on the node where the printing process lives
------------------
     ethr =  2.69E-10,  avg # of iterations =  3.0

     negative rho (up, down):  4.827E+00 4.827E+00


     ----------------------------------------------------------------

     Non-local correlation energy =              9.206458043396175

     ----------------------------------------------------------------


     total cpu time spent up to now is   270308.2 secs

     total energy              =  -11590.75405072 Ry
     estimated scf accuracy    <       0.00000209 Ry

     total magnetization       =     0.10 Bohr mag/cell
     absolute magnetization    =     0.12 Bohr mag/cell

     iteration # 49     ecut=    60.00 Ry     beta= 0.20
     CG style diagonalization

---- Real-time Memory Report at c_bands before calling an iterative solver
          1968 MiB given to the printing process from OS
             0 MiB allocation reported by mallinfo(arena+hblkhd)
        205464 MiB available memory on the node where the printing process lives
------------------
     ethr =  2.37E-10,  avg # of iterations =  3.0

     negative rho (up, down):  4.827E+00 4.827E+00


     ----------------------------------------------------------------

     Non-local correlation energy =              9.206465082051709

     ----------------------------------------------------------------


     total cpu time spent up to now is   275626.1 secs

     total energy              =  -11590.75405066 Ry
     estimated scf accuracy    <       0.00000549 Ry

     total magnetization       =     0.09 Bohr mag/cell
     absolute magnetization    =     0.12 Bohr mag/cell

     iteration # 50     ecut=    60.00 Ry     beta= 0.20
     CG style diagonalization

---- Real-time Memory Report at c_bands before calling an iterative solver
          1968 MiB given to the printing process from OS
             0 MiB allocation reported by mallinfo(arena+hblkhd)
        188343 MiB available memory on the node where the printing process lives
------------------
     ethr =  2.37E-10,  avg # of iterations =  3.0

     negative rho (up, down):  4.827E+00 4.827E+00


     ----------------------------------------------------------------

     Non-local correlation energy =              9.206472528450934

     ----------------------------------------------------------------


     total cpu time spent up to now is   281488.7 secs

     total energy              =  -11590.75405083 Ry
     estimated scf accuracy    <       0.00000160 Ry

     total magnetization       =     0.09 Bohr mag/cell
     absolute magnetization    =     0.11 Bohr mag/cell

     iteration # 51     ecut=    60.00 Ry     beta= 0.20
     CG style diagonalization

---- Real-time Memory Report at c_bands before calling an iterative solver
          1968 MiB given to the printing process from OS
             0 MiB allocation reported by mallinfo(arena+hblkhd)
        185965 MiB available memory on the node where the printing process lives
------------------
     ethr =  1.82E-10,  avg # of iterations =  3.0

     negative rho (up, down):  4.827E+00 4.827E+00


     ----------------------------------------------------------------

     Non-local correlation energy =              9.206475795655441

     ----------------------------------------------------------------


     total cpu time spent up to now is   287097.2 secs

     total energy              =  -11590.75405100 Ry
     estimated scf accuracy    <       0.00000212 Ry

     total magnetization       =     0.08 Bohr mag/cell
     absolute magnetization    =     0.10 Bohr mag/cell

     iteration # 52     ecut=    60.00 Ry     beta= 0.20
     CG style diagonalization

---- Real-time Memory Report at c_bands before calling an iterative solver
          1968 MiB given to the printing process from OS
             0 MiB allocation reported by mallinfo(arena+hblkhd)
        183712 MiB available memory on the node where the printing process lives
------------------
     ethr =  1.82E-10,  avg # of iterations =  3.0

     negative rho (up, down):  4.827E+00 4.827E+00


     ----------------------------------------------------------------

     Non-local correlation energy =              9.206478697956030

     ----------------------------------------------------------------


     total cpu time spent up to now is   292713.2 secs

     total energy              =  -11590.75405137 Ry
     estimated scf accuracy    <       0.00000106 Ry

     total magnetization       =     0.07 Bohr mag/cell
     absolute magnetization    =     0.09 Bohr mag/cell

     iteration # 53     ecut=    60.00 Ry     beta= 0.20
     CG style diagonalization

---- Real-time Memory Report at c_bands before calling an iterative solver
          1968 MiB given to the printing process from OS
             0 MiB allocation reported by mallinfo(arena+hblkhd)
        263642 MiB available memory on the node where the printing process lives
------------------
     ethr =  1.21E-10,  avg # of iterations =  3.0

     negative rho (up, down):  4.827E+00 4.827E+00


     ----------------------------------------------------------------

     Non-local correlation energy =              9.206479778084399

     ----------------------------------------------------------------


     total cpu time spent up to now is   297563.2 secs

     total energy              =  -11590.75405169 Ry
     estimated scf accuracy    <       0.00000204 Ry

     total magnetization       =     0.06 Bohr mag/cell
     absolute magnetization    =     0.09 Bohr mag/cell

     iteration # 54     ecut=    60.00 Ry     beta= 0.20
     CG style diagonalization

---- Real-time Memory Report at c_bands before calling an iterative solver
          1968 MiB given to the printing process from OS
             0 MiB allocation reported by mallinfo(arena+hblkhd)
        306966 MiB available memory on the node where the printing process lives
------------------
     ethr =  1.21E-10,  avg # of iterations =  3.0

     negative rho (up, down):  4.827E+00 4.827E+00


     ----------------------------------------------------------------

     Non-local correlation energy =              9.206457456597050

     ----------------------------------------------------------------


     Magnetic moment per site  (integrated on atomic sphere of radius R)
     atom   1 (R=0.052)  charge= 13.2629  magn=  0.0007
     atom   2 (R=0.052)  charge= 13.2390  magn=  0.0007
     atom   3 (R=0.052)  charge= 13.2462  magn= -0.0001
     atom   4 (R=0.052)  charge= 13.2626  magn=  0.0132
     atom   5 (R=0.052)  charge= 13.2345  magn=  0.0115
     atom   6 (R=0.052)  charge= 13.2477  magn=  0.0022
     atom   7 (R=0.052)  charge= 13.2638  magn=  0.0011
     atom   8 (R=0.052)  charge= 13.2464  magn= -0.0003
     atom   9 (R=0.052)  charge= 13.2410  magn=  0.0004
     atom  10 (R=0.052)  charge= 13.2335  magn=  0.0042
     atom  11 (R=0.052)  charge= 13.2664  magn=  0.0004
     atom  12 (R=0.052)  charge= 13.2438  magn= -0.0001
     atom  13 (R=0.052)  charge= 13.2421  magn=  0.0017
     atom  14 (R=0.052)  charge= 13.2564  magn= -0.0001
     atom  15 (R=0.052)  charge= 13.2525  magn= -0.0001
     atom  16 (R=0.052)  charge= 13.2511  magn= -0.0002
     atom  17 (R=0.052)  charge= 13.2446  magn= -0.0002
     atom  18 (R=0.052)  charge= 13.2569  magn=  0.0007
     atom  19 (R=0.052)  charge= 13.2835  magn=  0.0015
     atom  20 (R=0.052)  charge= 13.2518  magn= -0.0003
     atom  21 (R=0.052)  charge= 13.2515  magn=  0.0002
     atom  22 (R=0.052)  charge= 13.2567  magn=  0.0002
     atom  23 (R=0.052)  charge= 13.2557  magn=  0.0012
     atom  24 (R=0.052)  charge= 13.2507  magn= -0.0002
     atom  25 (R=0.052)  charge= 13.2663  magn=  0.0006
     atom  26 (R=0.052)  charge= 13.2573  magn=  0.0000
     atom  27 (R=0.052)  charge= 13.2368  magn=  0.0020
     atom  28 (R=0.052)  charge= 13.2401  magn=  0.0003
     atom  29 (R=0.052)  charge= 13.2798  magn= -0.0003
     atom  30 (R=0.052)  charge= 13.2569  magn=  0.0002
     atom  31 (R=0.052)  charge= 13.2544  magn= -0.0002
     atom  32 (R=0.052)  charge= 13.2375  magn=  0.0003
     atom  33 (R=0.052)  charge= 13.2443  magn= -0.0005
     atom  34 (R=0.052)  charge= 13.2489  magn= -0.0009
     atom  35 (R=0.052)  charge= 13.2492  magn=  0.0029
     atom  36 (R=0.052)  charge= 13.2446  magn=  0.0003
     atom  37 (R=0.052)  charge= 13.2428  magn=  0.0003
     atom  38 (R=0.052)  charge= 13.2447  magn=  0.0003
     atom  39 (R=0.052)  charge= 13.2430  magn= -0.0001
     atom  40 (R=0.052)  charge= 13.2578  magn=  0.0004
     atom  41 (R=0.052)  charge= 13.2461  magn=  0.0002
     atom  42 (R=0.052)  charge= 13.2496  magn=  0.0016
     atom  43 (R=0.052)  charge= 13.2394  magn=  0.0002
     atom  44 (R=0.052)  charge= 13.2529  magn=  0.0003
     atom  45 (R=0.052)  charge= 13.2500  magn=  0.0001
     atom  46 (R=0.052)  charge= 13.2459  magn=  0.0008
     atom  47 (R=0.052)  charge= 13.2437  magn= -0.0000
     atom  48 (R=0.052)  charge= 13.2485  magn= -0.0000
     atom  49 (R=0.052)  charge= 13.2552  magn=  0.0009
     atom  50 (R=0.052)  charge= 13.2479  magn= -0.0003
     atom  51 (R=0.052)  charge= 13.2368  magn=  0.0008
     atom  52 (R=0.052)  charge= 13.2285  magn=  0.0009
     atom  53 (R=0.052)  charge= 13.2619  magn=  0.0041
     atom  54 (R=0.052)  charge= 13.2542  magn= -0.0001
     atom  55 (R=0.052)  charge= 13.2594  magn= -0.0004

     total cpu time spent up to now is   300438.8 secs

     End of self-consistent calculation

 ------ SPIN UP ------------


          k = 0.0000 0.0000 0.0000 (211851 PWs)   bands (ev):

   -56.0299 -55.8820 -55.7991 -55.7730 -55.7023 -55.6786 -55.6415 -55.5931
   -55.5675 -55.5540 -55.5310 -55.5171 -55.5079 -55.4982 -55.4604 -55.4549
   -55.4419 -55.4301 -55.4030 -55.3910 -55.3844 -55.3737 -55.3660 -55.3609
   -55.3463 -55.3316 -55.3274 -55.3158 -55.3125 -55.3074 -55.3024 -55.2954
   -55.2904 -55.2862 -55.2846 -55.2684 -55.2611 -55.2564 -55.2469 -55.2412
   -55.2280 -55.2233 -55.2145 -55.2046 -55.1980 -55.1903 -55.1676 -55.1545
   -55.1507 -55.1399 -55.1270 -55.1149 -55.1141 -55.1076 -55.1040 -55.0916
   -55.0859 -55.0779 -55.0708 -55.0647 -55.0623 -55.0540 -55.0461 -55.0403
   -55.0368 -55.0282 -55.0265 -55.0233 -55.0137 -55.0070 -55.0052 -54.9982
   -54.9958 -54.9903 -54.9758 -54.9697 -54.9611 -54.9580 -54.9468 -54.9456
   -54.9366 -54.9270 -54.9244 -54.9200 -54.9089 -54.9050 -54.8987 -54.8875
   -54.8780 -54.8711 -54.8644 -54.8576 -54.8510 -54.8467 -54.8440 -54.8399
   -54.8361 -54.8339 -54.8283 -54.8100 -54.8068 -54.8029 -54.7998 -54.7978
   -54.7942 -54.7909 -54.7848 -54.7754 -54.7688 -54.7628 -54.7589 -54.7569
   -54.7537 -54.7490 -54.7472 -54.7406 -54.7345 -54.7263 -54.7208 -54.7189
   -54.7152 -54.7093 -54.7037 -54.7026 -54.7000 -54.6955 -54.6887 -54.6658
   -54.6536 -54.6528 -54.6452 -54.6308 -54.6239 -54.6199 -54.6105 -54.6095
   -54.6016 -54.5960 -54.5914 -54.5668 -54.5667 -54.5611 -54.5548 -54.5522
   -54.5448 -54.5307 -54.5123 -54.5010 -54.4961 -54.4848 -54.4753 -54.4679
   -54.4453 -54.4298 -54.4128 -54.4008 -54.3692 -54.3677 -54.3640 -54.3633
   -54.3232 -54.3035 -54.2782 -54.2695 -54.2694 -10.9254 -10.0187  -9.9459
    -9.7832  -9.1627  -9.0633  -9.0401  -9.0148  -8.9867  -8.8451  -8.7838
    -8.6929  -8.6706  -8.6168  -8.5493  -8.5103  -8.4876  -8.4510  -8.4243
    -8.3426  -8.2408  -8.2061  -8.1927  -8.1372  -8.1180  -8.0930  -8.0791
    -8.0674  -8.0256  -7.9943  -7.9809  -7.9758  -7.9279  -7.9004  -7.8961
    -7.8680  -7.8433  -7.8304  -7.7933  -7.7607  -7.7450  -7.7298  -7.6649
    -7.6483  -7.6321  -7.5946  -7.5801  -7.5477  -7.5159  -7.4953  -7.4887
    -7.4397  -7.4185  -7.3436  -7.3197  -7.2970  -7.2298  -7.2275  -7.2112
    -7.1727  -7.1705  -7.1491  -7.1334  -7.0995  -7.0873  -7.0544  -7.0334
    -7.0256  -6.9961  -6.9654  -6.9534  -6.9501  -6.9150  -6.8975  -6.8861
    -6.8653  -6.8423  -6.8157  -6.7757  -6.7359  -6.7200  -6.6995  -6.6734
    -6.6575  -6.6338  -6.6224  -6.6049  -6.5621  -6.5441  -6.5355  -6.4850
    -6.4668  -6.4324  -6.4131  -6.3889  -6.3294  -6.3033  -6.2989  -6.2744
    -6.2476  -6.2248  -6.1854  -6.1162  -6.1080  -6.0865  -6.0784  -6.0392
    -6.0295  -5.9550  -5.9226  -5.9082  -5.8585  -5.8127  -5.7848  -5.7540
    -5.7236  -5.6717  -5.6549  -5.6447  -5.6161  -5.6076  -5.5375  -5.5322
    -5.5063  -5.4911  -5.4701  -5.4473  -5.4353  -5.3969  -5.3907  -5.3704
    -5.3558  -5.3394  -5.3034  -5.2880  -5.2694  -5.2344  -5.2180  -5.1893
    -5.1669  -5.1515  -5.0996  -5.0751  -5.0670  -5.0511  -5.0175  -4.9977
    -4.9865  -4.9594  -4.9513  -4.8934  -4.8847  -4.8608  -4.8378  -4.8263
    -4.8224  -4.7867  -4.7667  -4.7447  -4.6953  -4.6752  -4.6733  -4.6565
    -4.6281  -4.5803  -4.5749  -4.5538  -4.5168  -4.5011  -4.4879  -4.4553
    -4.4418  -4.4229  -4.4054  -4.3836  -4.3578  -4.3447  -4.3289  -4.3025
    -4.2895  -4.2880  -4.2271  -4.2100  -4.1841  -4.1611  -4.1591  -4.1508
    -4.1093  -4.0836  -4.0675  -4.0518  -4.0429  -4.0319  -4.0094  -3.9835
    -3.9581  -3.9310  -3.9188  -3.9123  -3.8962  -3.8840  -3.8671  -3.8374
    -3.8302  -3.8252  -3.7955  -3.7763  -3.7580  -3.7335  -3.7213  -3.7091
    -3.6944  -3.6645  -3.6507  -3.6326  -3.6242  -3.6066  -3.5998  -3.5882
    -3.5412  -3.5352  -3.5134  -3.5005  -3.4899  -3.4734  -3.4560  -3.4405
    -3.4248  -3.4225  -3.4142  -3.3973  -3.3965  -3.3792  -3.3534  -3.3496
    -3.3371  -3.3235  -3.3030  -3.2950  -3.2789  -3.2684  -3.2653  -3.2494
    -3.2414  -3.2223  -3.2157  -3.2065  -3.1905  -3.1679  -3.1624  -3.1485
    -3.1284  -3.1028  -3.0932  -3.0891  -3.0743  -3.0592  -3.0455  -3.0174
    -3.0123  -2.9788  -2.9505  -2.9453  -2.9223  -2.8927  -2.8856  -2.8661
    -2.8491  -2.8449  -2.7898  -2.7556  -2.7128  -2.7016  -2.6520  -2.6309
    -2.5649  -2.5373  -2.5058  -2.4832  -2.4638  -2.4290  -2.4015  -2.3976
    -2.3709  -2.3392  -2.3158  -2.2901  -2.2803  -2.2643  -2.2443  -2.2075
    -2.1554  -2.1229  -2.0887  -2.0312  -2.0247  -1.9702  -1.9088  -1.8384
    -1.7382  -1.6942  -1.6522  -1.5514  -1.5019  -1.1316  -1.0083  -0.8239
    -0.7805  -0.7163  -0.6628  -0.5514  -0.4739  -0.4266  -0.3818  -0.3621
    -0.2874  -0.1910  -0.1285   0.0848   0.1611   0.2216   0.3457   0.6656
     0.7458   0.8719   0.8982   1.0074   1.0734   1.1444   1.1980   1.2697
     1.3345   1.3616   1.4184   1.5766   1.6227   1.7221   1.7921   1.8912
     2.0213   2.0471   2.1418   2.1519   2.2312   2.2450   2.3429   2.3726
     2.4187   2.4642   2.4986   2.5074   2.5216   2.5389   2.5462   2.6061
     2.6649   2.6968   2.7095   2.7171   2.7468   2.7560   2.7944   2.8288

     occupation numbers 
     1.0000   1.0000   1.0000   1.0000   1.0000   1.0000   1.0000   1.0000
     1.0000   1.0000   1.0000   1.0000   1.0000   1.0000   1.0000   1.0000
     1.0000   1.0000   1.0000   1.0000   1.0000   1.0000   1.0000   1.0000
     1.0000   1.0000   1.0000   1.0000   1.0000   1.0000   1.0000   1.0000
     1.0000   1.0000   1.0000   1.0000   1.0000   1.0000   1.0000   1.0000
     1.0000   1.0000   1.0000   1.0000   1.0000   1.0000   1.0000   1.0000
     1.0000   1.0000   1.0000   1.0000   1.0000   1.0000   1.0000   1.0000
     1.0000   1.0000   1.0000   1.0000   1.0000   1.0000   1.0000   1.0000
     1.0000   1.0000   1.0000   1.0000   1.0000   1.0000   1.0000   1.0000
     1.0000   1.0000   1.0000   1.0000   1.0000   1.0000   1.0000   1.0000
     1.0000   1.0000   1.0000   1.0000   1.0000   1.0000   1.0000   1.0000
     1.0000   1.0000   1.0000   1.0000   1.0000   1.0000   1.0000   1.0000
     1.0000   1.0000   1.0000   1.0000   1.0000   1.0000   1.0000   1.0000
     1.0000   1.0000   1.0000   1.0000   1.0000   1.0000   1.0000   1.0000
     1.0000   1.0000   1.0000   1.0000   1.0000   1.0000   1.0000   1.0000
     1.0000   1.0000   1.0000   1.0000   1.0000   1.0000   1.0000   1.0000
     1.0000   1.0000   1.0000   1.0000   1.0000   1.0000   1.0000   1.0000
     1.0000   1.0000   1.0000   1.0000   1.0000   1.0000   1.0000   1.0000
     1.0000   1.0000   1.0000   1.0000   1.0000   1.0000   1.0000   1.0000
     1.0000   1.0000   1.0000   1.0000   1.0000   1.0000   1.0000   1.0000
     1.0000   1.0000   1.0000   1.0000   1.0000   1.0000   1.0000   1.0000
[...]
     atom   17 type  1   force =   -75.89368820 -132.04008965  -34.39622382
     atom   18 type  1   force =  -123.45396003   30.65244079  102.02650086
     atom   19 type  1   force =    58.36124332  -44.65971172   10.01345436
     atom   20 type  1   force =   129.39032320  -99.28185924  -26.20447017
     atom   21 type  1   force =    88.34230121  116.58542603   63.15305539
     atom   22 type  1   force =   -15.21482163 -143.82905995  -86.31344051
     atom   23 type  1   force =   -10.56465001   50.93141378  148.08814804
     atom   24 type  1   force =  -143.79399046   42.83288046  -46.87590024
     atom   25 type  1   force =  -109.35179292  -60.97821454   90.13059121
     atom   26 type  1   force =  -125.19890092 -101.01374409   17.72229065
     atom   27 type  1   force =    30.42816699 -130.88844750   83.21987734
     atom   28 type  1   force =   -13.65944677  -60.62833763  -33.89228176
     atom   29 type  1   force =    50.22432375   -0.31380959  -63.52845867
     atom   30 type  1   force =  -112.62931590   -7.32281189 -119.12821569
     atom   31 type  1   force =  -106.71602897  121.78072789  -30.99387657
     atom   32 type  1   force =   142.56313233   50.48451173   16.85730314
     atom   33 type  1   force =    23.42113003   -3.75427450 -152.60031701
     atom   34 type  1   force =    89.21802523  -78.38732262 -111.33048507
     atom   35 type  1   force =    42.47718119   57.15231910    3.11997764
     atom   36 type  1   force =   -72.21892369   91.74303849  112.52576168
     atom   37 type  1   force =   149.54653849  -42.90664948   39.33623610
     atom   38 type  1   force =   -60.74810295   -3.89950070  136.42456548
     atom   39 type  1   force =  -132.56193928  -60.21508527  -56.90677889
     atom   40 type  1   force =    97.19103546  135.24800888   -9.93176512
     atom   41 type  1   force =   -88.40971823   78.76902958 -106.22453344
     atom   42 type  1   force =    33.84571233  124.11952869  -66.85663838
     atom   43 type  1   force =   -21.96446869   89.58179310 -130.07663082
     atom   44 type  1   force =   -55.15538241 -136.45909334   50.55201198
     atom   45 type  1   force =     8.25171325 -154.06554403    6.06786499
     atom   46 type  1   force =    87.62473381 -134.37235346   34.84632177
     atom   47 type  1   force =   -45.99812662   -2.81856800 -145.45507190
     atom   48 type  1   force =    60.72507251 -132.11866311  -59.76188822
     atom   49 type  1   force =   -41.60794980 -100.77938910  126.55297090
     atom   50 type  1   force =     7.32464196  -79.05969782 -131.35150644
     atom   51 type  1   force =    -1.10230441  127.25266416   90.03338756
     atom   52 type  1   force =  -123.21106696   82.97723357   39.05175743
     atom   53 type  1   force =   -36.89127865   51.41219698   32.85830718
     atom   54 type  1   force =   -71.89741664  -79.89792849 -111.65070818
     atom   55 type  1   force =   110.38669340    4.27637550 -116.56577487
     The core correction contribution to forces
     atom    1 type  1   force =     0.00639019    0.01222415    0.01298659
     atom    2 type  1   force =    -0.00608699    0.02333727    0.00663536
     atom    3 type  1   force =    -0.00184946    0.02379753    0.00216899
     atom    4 type  1   force =    -0.00460714    0.00807968    0.00081751
     atom    5 type  1   force =     0.01873878   -0.01663669    0.01221769
     atom    6 type  1   force =     0.00357337   -0.01086306    0.02067511
     atom    7 type  1   force =     0.01253174   -0.00418471    0.02267598
     atom    8 type  1   force =     0.02469420   -0.00334791   -0.00320562
     atom    9 type  1   force =     0.00727178   -0.00998826    0.01316272
     atom   10 type  1   force =     0.00265693    0.00971612   -0.00380993
     atom   11 type  1   force =     0.01194414   -0.00291942    0.00082358
     atom   12 type  1   force =    -0.00070632    0.02003056   -0.00797510
     atom   13 type  1   force =     0.02130450   -0.00082245    0.00399811
     atom   14 type  1   force =     0.00446925    0.01061743   -0.01650684
     atom   15 type  1   force =     0.02339373    0.01322003   -0.00215498
     atom   16 type  1   force =    -0.02487745    0.00124340    0.00200115
     atom   17 type  1   force =    -0.00675292   -0.02300963   -0.00639824
     atom   18 type  1   force =    -0.01305180    0.00547515    0.01186201
     atom   19 type  1   force =    -0.01188685    0.00728778   -0.00014391
     atom   20 type  1   force =     0.01044712   -0.00912285    0.00171433
     atom   21 type  1   force =     0.01294011    0.02054881    0.00858312
     atom   22 type  1   force =    -0.00230587   -0.01642289   -0.00900341
     atom   23 type  1   force =    -0.00815790    0.00981082    0.02137122
     atom   24 type  1   force =    -0.02419131    0.00621919   -0.00333917
     atom   25 type  1   force =    -0.02203486   -0.01465997    0.02114924
     atom   26 type  1   force =    -0.01200931   -0.01317323   -0.00236413
     atom   27 type  1   force =     0.00738848   -0.01819641    0.00683869
     atom   28 type  1   force =     0.00020030    0.00866852    0.00589448
     atom   29 type  1   force =     0.00125407    0.00636309   -0.00006477
     atom   30 type  1   force =    -0.01101825   -0.00160491   -0.01185446
     atom   31 type  1   force =    -0.00959917    0.01312050   -0.00177499
     atom   32 type  1   force =     0.01660375    0.00093647    0.00370712
     atom   33 type  1   force =    -0.00524295   -0.00417114   -0.02302587
     atom   34 type  1   force =     0.01340889   -0.01786287   -0.02150490
     atom   35 type  1   force =     0.00032309   -0.00534941   -0.00205711
     atom   36 type  1   force =    -0.00793903    0.01477547    0.01633967
     atom   37 type  1   force =     0.02089863   -0.00439088    0.01036515
     atom   38 type  1   force =    -0.00416906    0.00331483    0.01826342
     atom   39 type  1   force =    -0.01792517   -0.00807663   -0.00916012
     atom   40 type  1   force =     0.01382859    0.01540136   -0.00089025
     atom   41 type  1   force =    -0.01196848    0.01364026   -0.02409505
     atom   42 type  1   force =    -0.00320469    0.01951719    0.00078809
     atom   43 type  1   force =    -0.00684963    0.01408115   -0.01636590
     atom   44 type  1   force =    -0.00369259   -0.02041494    0.00639677
     atom   45 type  1   force =     0.00060508   -0.01986603    0.00435126
     atom   46 type  1   force =     0.01242328   -0.02067782    0.00752253
     atom   47 type  1   force =    -0.00102063   -0.00020445   -0.02025827
     atom   48 type  1   force =     0.00683596   -0.02279575   -0.00947062
     atom   49 type  1   force =    -0.00146970   -0.00902252    0.01390276
     atom   50 type  1   force =     0.00033216   -0.00763141   -0.01932829
     atom   51 type  1   force =    -0.00722635    0.02019230    0.00834942
     atom   52 type  1   force =    -0.01730724    0.01223985    0.00542728
     atom   53 type  1   force =     0.00487751   -0.01615955   -0.01329753
     atom   54 type  1   force =    -0.00778525   -0.01229225   -0.01784826
     atom   55 type  1   force =     0.01653711   -0.00082223   -0.01330595
     The Hubbard contrib.    to forces
     atom    1 type  1   force =     0.00000000    0.00000000    0.00000000
     atom    2 type  1   force =     0.00000000    0.00000000    0.00000000
     atom    3 type  1   force =     0.00000000    0.00000000    0.00000000
     atom    4 type  1   force =     0.00000000    0.00000000    0.00000000
     atom    5 type  1   force =     0.00000000    0.00000000    0.00000000
     atom    6 type  1   force =     0.00000000    0.00000000    0.00000000
     atom    7 type  1   force =     0.00000000    0.00000000    0.00000000
     atom    8 type  1   force =     0.00000000    0.00000000    0.00000000
     atom    9 type  1   force =     0.00000000    0.00000000    0.00000000
     atom   10 type  1   force =     0.00000000    0.00000000    0.00000000
     atom   11 type  1   force =     0.00000000    0.00000000    0.00000000
     atom   12 type  1   force =     0.00000000    0.00000000    0.00000000
     atom   13 type  1   force =     0.00000000    0.00000000    0.00000000
     atom   14 type  1   force =     0.00000000    0.00000000    0.00000000
     atom   15 type  1   force =     0.00000000    0.00000000    0.00000000
     atom   16 type  1   force =     0.00000000    0.00000000    0.00000000
     atom   17 type  1   force =     0.00000000    0.00000000    0.00000000
     atom   18 type  1   force =     0.00000000    0.00000000    0.00000000
     atom   19 type  1   force =     0.00000000    0.00000000    0.00000000
     atom   20 type  1   force =     0.00000000    0.00000000    0.00000000
     atom   21 type  1   force =     0.00000000    0.00000000    0.00000000
     atom   22 type  1   force =     0.00000000    0.00000000    0.00000000
     atom   23 type  1   force =     0.00000000    0.00000000    0.00000000
     atom   24 type  1   force =     0.00000000    0.00000000    0.00000000
     atom   25 type  1   force =     0.00000000    0.00000000    0.00000000
     atom   26 type  1   force =     0.00000000    0.00000000    0.00000000
     atom   27 type  1   force =     0.00000000    0.00000000    0.00000000
     atom   28 type  1   force =     0.00000000    0.00000000    0.00000000
     atom   29 type  1   force =     0.00000000    0.00000000    0.00000000
     atom   30 type  1   force =     0.00000000    0.00000000    0.00000000
     atom   31 type  1   force =     0.00000000    0.00000000    0.00000000
     atom   32 type  1   force =     0.00000000    0.00000000    0.00000000
     atom   33 type  1   force =     0.00000000    0.00000000    0.00000000
     atom   34 type  1   force =     0.00000000    0.00000000    0.00000000
     atom   35 type  1   force =     0.00000000    0.00000000    0.00000000
     atom   36 type  1   force =     0.00000000    0.00000000    0.00000000
     atom   37 type  1   force =     0.00000000    0.00000000    0.00000000
     atom   38 type  1   force =     0.00000000    0.00000000    0.00000000
     atom   39 type  1   force =     0.00000000    0.00000000    0.00000000
     atom   40 type  1   force =     0.00000000    0.00000000    0.00000000
     atom   41 type  1   force =     0.00000000    0.00000000    0.00000000
     atom   42 type  1   force =     0.00000000    0.00000000    0.00000000
     atom   43 type  1   force =     0.00000000    0.00000000    0.00000000
     atom   44 type  1   force =     0.00000000    0.00000000    0.00000000
     atom   45 type  1   force =     0.00000000    0.00000000    0.00000000
     atom   46 type  1   force =     0.00000000    0.00000000    0.00000000
     atom   47 type  1   force =     0.00000000    0.00000000    0.00000000
     atom   48 type  1   force =     0.00000000    0.00000000    0.00000000
     atom   49 type  1   force =     0.00000000    0.00000000    0.00000000
     atom   50 type  1   force =     0.00000000    0.00000000    0.00000000
     atom   51 type  1   force =     0.00000000    0.00000000    0.00000000
     atom   52 type  1   force =     0.00000000    0.00000000    0.00000000
     atom   53 type  1   force =     0.00000000    0.00000000    0.00000000
     atom   54 type  1   force =     0.00000000    0.00000000    0.00000000
     atom   55 type  1   force =     0.00000000    0.00000000    0.00000000
     The SCF correction term to forces
     atom    1 type  1   force =    -0.00032257   -0.00002874    0.00028138
     atom    2 type  1   force =    -0.00059504   -0.00046594    0.00036743
     atom    3 type  1   force =    -0.00071013    0.00019944    0.00056972
     atom    4 type  1   force =    -0.00075704   -0.00003806    0.00060428
     atom    5 type  1   force =    -0.00023785   -0.00009933    0.00039352
     atom    6 type  1   force =    -0.00045060    0.00014468    0.00001227
     atom    7 type  1   force =    -0.00026929    0.00010984    0.00016269
     atom    8 type  1   force =     0.00037929   -0.00016911    0.00001088
     atom    9 type  1   force =    -0.00119309   -0.00016957    0.00024522
     atom   10 type  1   force =    -0.00082749    0.00023881    0.00026476
     atom   11 type  1   force =    -0.00047596    0.00019897    0.00040030
     atom   12 type  1   force =    -0.00087344   -0.00015859    0.00024703
     atom   13 type  1   force =    -0.00007410    0.00002107    0.00063006
     atom   14 type  1   force =    -0.00010609    0.00004405   -0.00043992
     atom   15 type  1   force =     0.00039276    0.00008353   -0.00022087
     atom   16 type  1   force =     0.00043870    0.00028777    0.00020670
     atom   17 type  1   force =    -0.00050129    0.00046904    0.00037911
     atom   18 type  1   force =     0.00031353    0.00000484   -0.00030999
     atom   19 type  1   force =    -0.00051662   -0.00030151    0.00048584
     atom   20 type  1   force =     0.00026507   -0.00023720    0.00022964
     atom   21 type  1   force =    -0.00022182    0.00015526    0.00078980
     atom   22 type  1   force =    -0.00044424    0.00010737    0.00007483
     atom   23 type  1   force =    -0.00049225    0.00004076   -0.00003392
     atom   24 type  1   force =     0.00024428   -0.00017167    0.00040458
     atom   25 type  1   force =     0.00002994    0.00057845   -0.00007660
     atom   26 type  1   force =     0.00006134    0.00057184    0.00020348
     atom   27 type  1   force =    -0.00040540    0.00016826    0.00028627
     atom   28 type  1   force =    -0.00093165    0.00036718    0.00043459
     atom   29 type  1   force =    -0.00055806   -0.00014342   -0.00005754
     atom   30 type  1   force =    -0.00004328    0.00011468    0.00036632
     atom   31 type  1   force =    -0.00012400   -0.00045878    0.00037387
     atom   32 type  1   force =     0.00031618   -0.00001848    0.00044494
     atom   33 type  1   force =    -0.00045170    0.00000047   -0.00037838
     atom   34 type  1   force =     0.00007746   -0.00009613   -0.00029444
     atom   35 type  1   force =    -0.00077475   -0.00008082    0.00050901
     atom   36 type  1   force =    -0.00039145   -0.00035133   -0.00017325
     atom   37 type  1   force =     0.00015908   -0.00022535    0.00043793
     atom   38 type  1   force =    -0.00044137    0.00023642   -0.00031909
     atom   39 type  1   force =     0.00003246    0.00050263    0.00030871
     atom   40 type  1   force =     0.00014141    0.00039414    0.00028343
     atom   41 type  1   force =    -0.00043250   -0.00030442    0.00029849
     atom   42 type  1   force =    -0.00051064    0.00021354   -0.00009912
     atom   43 type  1   force =    -0.00076650   -0.00016972   -0.00012427
     atom   44 type  1   force =    -0.00029773    0.00052271    0.00032237
     atom   45 type  1   force =    -0.00035804    0.00016091    0.00060275
     atom   46 type  1   force =    -0.00012871   -0.00014270    0.00048283
     atom   47 type  1   force =    -0.00068710    0.00008900    0.00015649
     atom   48 type  1   force =    -0.00001534   -0.00014651    0.00022165
     atom   49 type  1   force =    -0.00025479    0.00041082   -0.00019894
     atom   50 type  1   force =    -0.00056259    0.00028713   -0.00017290
     atom   51 type  1   force =    -0.00067017   -0.00017806    0.00043793
     atom   52 type  1   force =     0.00010501   -0.00040861    0.00027876
     atom   53 type  1   force =    -0.00113560   -0.00013706    0.00042331
     atom   54 type  1   force =    -0.00064156    0.00058354    0.00015504
     atom   55 type  1   force =     0.00019140   -0.00004737   -0.00039708

     Total force =     0.088910     Total SCF correction =     0.004957

     BFGS Geometry Optimization
     Energy error            =      0.0E+00 Ry
     Gradient error          =      1.4E-02 Ry/Bohr

     number of scf cycles    =   1
     number of bfgs steps    =   0

     energy             new  =  -11590.7540543603 Ry

     new trust radius        =       0.0162192029 bohr
     new conv_thr            =       0.0000010000 Ry


ATOMIC_POSITIONS (angstrom)
Pt              -2.3712632819       -2.5782809670       -4.2943154920
Pt               1.7618932963       -3.8150978364       -0.9562759023
Pt              -0.8202536266       -4.1793023684       -0.2766195816
Pt              -1.0717881163       -0.2774355158       -2.3378357603
Pt              -2.6810421684        1.8524163675       -2.8972357300
Pt              -0.4365045149        1.4905267931       -4.4571599863
Pt              -2.4616246998       -0.0030866453       -4.9572441004
Pt              -4.4019519271        0.1833897026        1.7082991734
Pt               0.6621217121       -0.8839043498        1.6016740595
Pt               0.9828411285        1.2911102313       -1.6152879652
Pt               2.5745583001        0.2862807187        0.1865858260
Pt               1.0367096255       -3.6639564130        1.6489270054
Pt              -3.6512915486       -0.8054589903       -2.7319363507
Pt              -2.4046587942       -2.6462456440        4.5458972393
Pt              -3.9720599400       -2.3414491784        2.3872224061
Pt               4.8882239057        0.5411124302       -0.9517637462
Pt               2.5834467565        3.8596033790        0.8879277678
Pt               4.2771166306       -0.6009762964       -3.2782164899
Pt              -1.7948395242        1.0537366089       -0.2445577950
Pt              -4.1581178895        2.7494680454        1.1528297845
Pt              -2.8261124589       -3.3045243277       -1.8973382801
Pt               0.6152222269        4.3169840816        2.5737055171
Pt              -0.0812724328       -1.2820968746       -4.5651167993
Pt               4.5082352461       -0.9974590665        1.3289479235
Pt               3.6400088159        1.9189878520       -2.8110331686
Pt               4.5343376662        3.2310259461       -0.7031641758
Pt              -0.4552049988        3.4166823809       -2.5247790088
Pt               0.4196286514        1.6994884017        0.9829152442
Pt              -1.7671393199       -0.0389810315        2.0494365142
Pt               3.8267179779        0.3017865488        3.5489778930
Pt               3.5806347658       -3.4711963350        0.9563857776
Pt              -4.1422318740       -1.6336904907       -0.2334450774
Pt              -1.3454411224       -0.1735356224        4.5904210311
Pt              -3.0029881716        1.8118693038        3.4661922661
Pt              -1.4456561419       -1.5684708523       -0.0315883667
Pt               2.1465252734       -2.1581443247       -3.3121507142
Pt              -4.2957249782        0.9493189208       -0.8497531938
Pt               1.9458732259        0.3708776366       -4.1031602714
Pt               4.3161766817        1.7673375689        1.4445728639
Pt              -3.4092818077       -4.0756007085        0.5067987743
Pt               2.6751375403       -2.0417019840        3.0111681571
Pt              -1.5168166153       -3.3411979999        2.1617829464
Pt               0.1613730370       -2.4424751758        3.9236749587
Pt               2.0768398071        3.7433862873       -1.6805240094
Pt               0.0338565324        4.1554313745       -0.0015780394
Pt              -2.4335199277        3.4803169622       -0.7751116826
Pt               1.2551153778       -0.0082844189        4.0801146554
Pt              -1.8199621766        3.5775504214        1.8704825926
Pt               1.6462920733        3.0225099484       -4.1917873351
Pt              -0.3587800829        2.0993370844        3.6530616997
Pt              -0.2151952589       -3.2228041718       -2.6794374016
Pt               3.9043185829       -2.0285631320       -1.1552653393
Pt               1.0665848305       -1.3478485222       -1.0989365433
Pt               2.2147807267        2.2914632589        3.0685097214
Pt              -3.9938471955       -0.5302292117        4.2761063084


