
     Program PWSCF v.7.3.1 starts on 17Jan2025 at  5: 7:59 

     This program is part of the open-source Quantum ESPRESSO suite
     for quantum simulation of materials; please cite
         "P. Giannozzi et al., J. Phys.:Condens. Matter 21 395502 (2009);
         "P. Giannozzi et al., J. Phys.:Condens. Matter 29 465901 (2017);
         "P. Giannozzi et al., J. Chem. Phys. 152 154105 (2020);
          URL http://www.quantum-espresso.org", 
     in publications or presentations arising from this work. More details at
     http://www.quantum-espresso.org/quote

     Parallel version (MPI), running on    36 processors

     MPI processes distributed on     1 nodes
     183720 MiB available memory on the printing compute node when the environment starts
 
     Reading input from espresso.pwi
Warning: card   &CELL ignored
Warning: card      CELL_DOFREE = 'IBRAV' ignored
Warning: card / ignored

     Current dimensions of program PWSCF are:
     Max number of different atomic species (ntypx) = 10
     Max number of k-points (npk) =  40000
     Max angular momentum in pseudopotentials (lmaxx) =  4

     IMPORTANT: XC functional enforced from input :
     Exchange-correlation= RVV10
                           (   1   4  13   4  26   0   0)
     Any further DFT definition will be discarded
     Please, verify this is what you really want


     gamma-point specific algorithms are used
     Message from routine setup:
     using ibrav=0 with symmetry is DISCOURAGED, use correct ibrav instead
 
     R & G space division:  proc/nbgrp/npool/nimage =      36
     Subspace diagonalization in iterative solution of the eigenvalue problem:
     one sub-group per band group will be used
     scalapack distributed-memory algorithm (size of sub-group:  5*  5 procs)

 
     Parallelization info
     --------------------
     sticks:   dense  smooth     PW     G-vecs:    dense   smooth      PW
     Min        1227     612    151               194140    68620    8576
     Max        1230     614    154               194152    68634    8590
     Sum       44213   22097   5513              6989249  2470567  308947
 
     Using Slab Decomposition
 

     Title: 
     calc                                                                       


     bravais-lattice index     =            0
     lattice parameter (alat)  =      34.0151  a.u.
     unit-cell volume          =   39356.2868 (a.u.)^3
     number of atoms/cell      =           56
     number of atomic types    =            2
     number of electrons       =       881.00
     number of Kohn-Sham states=          529
     kinetic-energy cutoff     =      60.0000  Ry
     charge density cutoff     =     480.0000  Ry
     scf convergence threshold =      1.0E-06
     mixing beta               =       0.2000
     number of iterations used =            8  plain     mixing
     energy convergence thresh.=      1.0E-04
     force convergence thresh. =      1.0E-03
     Exchange-correlation= RVV10
                           (   1   4  13   4  26   0   0)
     nstep                     =        10000


     celldm(1)=  34.015070  celldm(2)=   0.000000  celldm(3)=   0.000000
     celldm(4)=   0.000000  celldm(5)=   0.000000  celldm(6)=   0.000000

     crystal axes: (cart. coord. in units of alat)
               a(1) = (   1.000000   0.000000   0.000000 )  
               a(2) = (   0.000000   1.000000   0.000000 )  
               a(3) = (   0.000000   0.000000   1.000000 )  

     reciprocal axes: (cart. coord. in units 2 pi/alat)
               b(1) = (  1.000000  0.000000  0.000000 )  
               b(2) = (  0.000000  1.000000  0.000000 )  
               b(3) = (  0.000000  0.000000  1.000000 )  


     PseudoPot. # 1 for Pt read from file:
     /home/james/work/espresso/SSSP_1.3.0_PBE_efficiency/pt_pbe_v1.4.uspp.F.UPF
     MD5 check sum: f09d6de1a584b5a045c4fc126da2d0c4
     Pseudo is Ultrasoft + core correction, Zval = 16.0
     Generated by new atomic code, or converted to UPF format
     Using radial grid of  985 points,  6 beta functions with: 
                l(1) =   0
                l(2) =   0
                l(3) =   1
                l(4) =   1
                l(5) =   2
                l(6) =   2
     Q(r) pseudized with  8 coefficients,  rinner =    1.300   1.300   1.300
                                                       1.300   1.300

     PseudoPot. # 2 for H  read from file:
     /home/james/work/espresso/SSSP_1.3.0_PBE_efficiency/H.pbe-rrkjus_psl.1.0.0.UPF
     MD5 check sum: f52b6d4d1c606e5624b1dc7b2218f220
     Pseudo is Ultrasoft, Zval =  1.0
     Generated using "atomic" code by A. Dal Corso  v.5.1
     Using radial grid of  929 points,  2 beta functions with: 
                l(1) =   0
                l(2) =   0
     Q(r) pseudized with 0 coefficients 


     atomic species   valence    mass     pseudopotential
     Pt               16.00   195.08400     Pt( 1.00)
     H                 1.00     1.00800     H ( 1.00)

     Starting magnetic structure 
     atomic species   magnetization
     Pt              0.010
     H               0.020

      4 Sym. Ops. (no inversion) found


                                    s                        frac. trans.

      isym =  1     identity                                     

 cryst.   s( 1) = (     1          0          0      )
                  (     0          1          0      )
                  (     0          0          1      )

 cart.    s( 1) = (  1.0000000  0.0000000  0.0000000 )
                  (  0.0000000  1.0000000  0.0000000 )
                  (  0.0000000  0.0000000  1.0000000 )


      isym =  2     180 deg rotation - cart. axis [1,1,0]        

 cryst.   s( 2) = (     0          1          0      )
                  (     1          0          0      )
                  (     0          0         -1      )

 cart.    s( 2) = (  0.0000000  1.0000000  0.0000000 )
                  (  1.0000000  0.0000000  0.0000000 )
                  (  0.0000000  0.0000000 -1.0000000 )


      isym =  3     inv. 180 deg rotation - cart. axis [0,0,1]   

 cryst.   s( 3) = (     1          0          0      )
                  (     0          1          0      )
                  (     0          0         -1      )

 cart.    s( 3) = (  1.0000000  0.0000000  0.0000000 )
                  (  0.0000000  1.0000000  0.0000000 )
                  (  0.0000000  0.0000000 -1.0000000 )


      isym =  4     inv. 180 deg rotation - cart. axis [1,-1,0]  

 cryst.   s( 4) = (     0          1          0      )
                  (     1          0          0      )
                  (     0          0          1      )

 cart.    s( 4) = (  0.0000000  1.0000000  0.0000000 )
                  (  1.0000000  0.0000000  0.0000000 )
                  (  0.0000000  0.0000000  1.0000000 )


   Cartesian axes

     site n.     atom                  positions (alat units)
         1        Pt     tau(   1) = (  -0.2177778  -0.1088889  -0.1088889  )
         2        Pt     tau(   2) = (  -0.1088889  -0.2177778  -0.1088889  )
         3        Pt     tau(   3) = (  -0.1088889  -0.1088889  -0.2177778  )
         4        Pt     tau(   4) = (  -0.2177778  -0.2177778   0.0000000  )
         5        Pt     tau(   5) = (  -0.2177778  -0.1088889   0.1088889  )
         6        Pt     tau(   6) = (  -0.1088889  -0.2177778   0.1088889  )
         7        Pt     tau(   7) = (  -0.1088889  -0.1088889   0.0000000  )
         8        Pt     tau(   8) = (  -0.1088889  -0.1088889   0.2177778  )
         9        Pt     tau(   9) = (  -0.2177778   0.0000000  -0.2177778  )
        10        Pt     tau(  10) = (  -0.2177778   0.1088889  -0.1088889  )
        11        Pt     tau(  11) = (  -0.1088889   0.0000000  -0.1088889  )
        12        Pt     tau(  12) = (  -0.1088889   0.1088889  -0.2177778  )
        13        Pt     tau(  13) = (  -0.2177778   0.0000000   0.0000000  )
        14        Pt     tau(  14) = (  -0.2177778   0.1088889   0.1088889  )
        15        Pt     tau(  15) = (  -0.1088889   0.0000000   0.1088889  )
        16        Pt     tau(  16) = (  -0.1088889   0.1088889   0.0000000  )
        17        Pt     tau(  17) = (  -0.2177778   0.0000000   0.2177778  )
        18        Pt     tau(  18) = (  -0.1088889   0.1088889   0.2177778  )
        19        Pt     tau(  19) = (  -0.1088889   0.2177778  -0.1088889  )
        20        Pt     tau(  20) = (  -0.2177778   0.2177778   0.0000000  )
        21        Pt     tau(  21) = (  -0.1088889   0.2177778   0.1088889  )
        22        Pt     tau(  22) = (   0.0000000  -0.2177778  -0.2177778  )
        23        Pt     tau(  23) = (   0.0000000  -0.1088889  -0.1088889  )
        24        Pt     tau(  24) = (   0.1088889  -0.2177778  -0.1088889  )
        25        Pt     tau(  25) = (   0.1088889  -0.1088889  -0.2177778  )
        26        Pt     tau(  26) = (   0.0000000  -0.2177778   0.0000000  )
        27        Pt     tau(  27) = (   0.0000000  -0.1088889   0.1088889  )
        28        Pt     tau(  28) = (   0.1088889  -0.2177778   0.1088889  )
        29        Pt     tau(  29) = (   0.1088889  -0.1088889   0.0000000  )
        30        Pt     tau(  30) = (   0.0000000  -0.2177778   0.2177778  )
        31        Pt     tau(  31) = (   0.1088889  -0.1088889   0.2177778  )
        32        Pt     tau(  32) = (   0.0000000   0.0000000  -0.2177778  )
        33        Pt     tau(  33) = (   0.0000000   0.1088889  -0.1088889  )
        34        Pt     tau(  34) = (   0.1088889   0.0000000  -0.1088889  )
        35        Pt     tau(  35) = (   0.1088889   0.1088889  -0.2177778  )
        36        Pt     tau(  36) = (   0.0000000   0.0000000   0.0000000  )
        37        Pt     tau(  37) = (   0.0000000   0.1088889   0.1088889  )
        38        Pt     tau(  38) = (   0.1088889   0.0000000   0.1088889  )
        39        Pt     tau(  39) = (   0.1088889   0.1088889   0.0000000  )
        40        Pt     tau(  40) = (   0.0000000   0.0000000   0.2177778  )
        41        Pt     tau(  41) = (   0.1088889   0.1088889   0.2177778  )
        42        Pt     tau(  42) = (   0.0000000   0.2177778  -0.2177778  )
        43        Pt     tau(  43) = (   0.1088889   0.2177778  -0.1088889  )
        44        Pt     tau(  44) = (   0.0000000   0.2177778   0.0000000  )
        45        Pt     tau(  45) = (   0.1088889   0.2177778   0.1088889  )
        46        Pt     tau(  46) = (   0.0000000   0.2177778   0.2177778  )
        47        Pt     tau(  47) = (   0.2177778  -0.1088889  -0.1088889  )
        48        Pt     tau(  48) = (   0.2177778  -0.2177778   0.0000000  )
        49        Pt     tau(  49) = (   0.2177778  -0.1088889   0.1088889  )
        50        Pt     tau(  50) = (   0.2177778   0.0000000  -0.2177778  )
        51        Pt     tau(  51) = (   0.2177778   0.1088889  -0.1088889  )
        52        Pt     tau(  52) = (   0.2177778   0.0000000   0.0000000  )
        53        Pt     tau(  53) = (   0.2177778   0.1088889   0.1088889  )
        54        Pt     tau(  54) = (   0.2177778   0.0000000   0.2177778  )
        55        Pt     tau(  55) = (   0.2177778   0.2177778   0.0000000  )
        56        H      tau(  56) = (  -0.2884885  -0.2884885   0.0000000  )

   Crystallographic axes

     site n.     atom                  positions (cryst. coord.)
         1        Pt     tau(   1) = ( -0.2177778 -0.1088889 -0.1088889  )
         2        Pt     tau(   2) = ( -0.1088889 -0.2177778 -0.1088889  )
         3        Pt     tau(   3) = ( -0.1088889 -0.1088889 -0.2177778  )
         4        Pt     tau(   4) = ( -0.2177778 -0.2177778  0.0000000  )
         5        Pt     tau(   5) = ( -0.2177778 -0.1088889  0.1088889  )
         6        Pt     tau(   6) = ( -0.1088889 -0.2177778  0.1088889  )
         7        Pt     tau(   7) = ( -0.1088889 -0.1088889  0.0000000  )
         8        Pt     tau(   8) = ( -0.1088889 -0.1088889  0.2177778  )
         9        Pt     tau(   9) = ( -0.2177778  0.0000000 -0.2177778  )
        10        Pt     tau(  10) = ( -0.2177778  0.1088889 -0.1088889  )
        11        Pt     tau(  11) = ( -0.1088889  0.0000000 -0.1088889  )
        12        Pt     tau(  12) = ( -0.1088889  0.1088889 -0.2177778  )
        13        Pt     tau(  13) = ( -0.2177778  0.0000000  0.0000000  )
        14        Pt     tau(  14) = ( -0.2177778  0.1088889  0.1088889  )
        15        Pt     tau(  15) = ( -0.1088889  0.0000000  0.1088889  )
        16        Pt     tau(  16) = ( -0.1088889  0.1088889  0.0000000  )
        17        Pt     tau(  17) = ( -0.2177778  0.0000000  0.2177778  )
        18        Pt     tau(  18) = ( -0.1088889  0.1088889  0.2177778  )
        19        Pt     tau(  19) = ( -0.1088889  0.2177778 -0.1088889  )
        20        Pt     tau(  20) = ( -0.2177778  0.2177778  0.0000000  )
        21        Pt     tau(  21) = ( -0.1088889  0.2177778  0.1088889  )
        22        Pt     tau(  22) = (  0.0000000 -0.2177778 -0.2177778  )
        23        Pt     tau(  23) = (  0.0000000 -0.1088889 -0.1088889  )
        24        Pt     tau(  24) = (  0.1088889 -0.2177778 -0.1088889  )
        25        Pt     tau(  25) = (  0.1088889 -0.1088889 -0.2177778  )
        26        Pt     tau(  26) = (  0.0000000 -0.2177778  0.0000000  )
        27        Pt     tau(  27) = (  0.0000000 -0.1088889  0.1088889  )
        28        Pt     tau(  28) = (  0.1088889 -0.2177778  0.1088889  )
        29        Pt     tau(  29) = (  0.1088889 -0.1088889  0.0000000  )
        30        Pt     tau(  30) = (  0.0000000 -0.2177778  0.2177778  )
        31        Pt     tau(  31) = (  0.1088889 -0.1088889  0.2177778  )
        32        Pt     tau(  32) = (  0.0000000  0.0000000 -0.2177778  )
        33        Pt     tau(  33) = (  0.0000000  0.1088889 -0.1088889  )
        34        Pt     tau(  34) = (  0.1088889  0.0000000 -0.1088889  )
        35        Pt     tau(  35) = (  0.1088889  0.1088889 -0.2177778  )
        36        Pt     tau(  36) = (  0.0000000  0.0000000  0.0000000  )
        37        Pt     tau(  37) = (  0.0000000  0.1088889  0.1088889  )
        38        Pt     tau(  38) = (  0.1088889  0.0000000  0.1088889  )
        39        Pt     tau(  39) = (  0.1088889  0.1088889  0.0000000  )
        40        Pt     tau(  40) = (  0.0000000  0.0000000  0.2177778  )
        41        Pt     tau(  41) = (  0.1088889  0.1088889  0.2177778  )
        42        Pt     tau(  42) = (  0.0000000  0.2177778 -0.2177778  )
        43        Pt     tau(  43) = (  0.1088889  0.2177778 -0.1088889  )
        44        Pt     tau(  44) = (  0.0000000  0.2177778  0.0000000  )
        45        Pt     tau(  45) = (  0.1088889  0.2177778  0.1088889  )
        46        Pt     tau(  46) = (  0.0000000  0.2177778  0.2177778  )
        47        Pt     tau(  47) = (  0.2177778 -0.1088889 -0.1088889  )
        48        Pt     tau(  48) = (  0.2177778 -0.2177778  0.0000000  )
        49        Pt     tau(  49) = (  0.2177778 -0.1088889  0.1088889  )
        50        Pt     tau(  50) = (  0.2177778  0.0000000 -0.2177778  )
        51        Pt     tau(  51) = (  0.2177778  0.1088889 -0.1088889  )
        52        Pt     tau(  52) = (  0.2177778  0.0000000  0.0000000  )
        53        Pt     tau(  53) = (  0.2177778  0.1088889  0.1088889  )
        54        Pt     tau(  54) = (  0.2177778  0.0000000  0.2177778  )
        55        Pt     tau(  55) = (  0.2177778  0.2177778  0.0000000  )
        56        H      tau(  56) = ( -0.2884885 -0.2884885  0.0000000  )

     number of k points=     1  Gaussian smearing, width (Ry)=  0.0100
                       cart. coord. in units 2pi/alat
        k(    1) = (   0.0000000   0.0000000   0.0000000), wk =   1.0000000

                       cryst. coord.
        k(    1) = (   0.0000000   0.0000000   0.0000000), wk =   1.0000000

     Dense  grid:  3494625 G-vectors     FFT dimensions: ( 240, 240, 240)

     Smooth grid:  1235284 G-vectors     FFT dimensions: ( 180, 180, 180)

     Dynamical RAM for                 wfc:      34.63 MB

     Dynamical RAM for     wfc (w. buffer):     103.89 MB

     Dynamical RAM for           str. fact:       2.96 MB

     Dynamical RAM for           local pot:       0.00 MB

     Dynamical RAM for          nlocal pot:      64.94 MB

     Dynamical RAM for                qrad:       3.52 MB

     Dynamical RAM for          rho,v,vnew:      27.34 MB

     Dynamical RAM for               rhoin:       9.11 MB

     Dynamical RAM for            rho*nmix:      47.40 MB

     Dynamical RAM for           G-vectors:       5.82 MB

     Dynamical RAM for          h,s,v(r/c):       0.25 MB

     Dynamical RAM for          <psi|beta>:       4.00 MB

     Dynamical RAM for      wfcinit/wfcrot:      75.67 MB

     Dynamical RAM for           addusdens:     358.47 MB

     Dynamical RAM for          addusforce:     518.87 MB

     Estimated static dynamical RAM per process >     240.48 MB

     Estimated max dynamical RAM per process >     806.75 MB

     Estimated total dynamical RAM >      28.36 GB

     Atomic positions and unit cell read from directory:
     ./out/calc.save/
     Message from routine qexsd_readschema :
     xml data file ./out/calc.save/data-file-schema.xml not found
     Nothing found: using input atomic positions and unit cell

     Generating pointlists ...
     new r_m :   0.0412 (alat units)  1.4031 (a.u.) for type    1
     new r_m :   0.0412 (alat units)  1.4031 (a.u.) for type    2
     Cannot read rho : file not found

     Initial potential from superposition of free atoms

     starting charge     853.4994, renormalised to     881.0000

     negative rho (up, down):  5.273E+00 5.168E+00


---------------------------------------------------------------------------------
Carrying out rVV10 run using the following parameters:
Nqs =      20    Nr_points =    1024   r_max =   100.000
b_value =  6.30000    beta =  0.00901
     q_mesh =  0.00010000  0.00030000  0.00058939  0.00100810
               0.00161396  0.00249058  0.00375900  0.00559430
               0.00824984  0.01209221  0.01765183  0.02569619
               0.03733578  0.05417739  0.07854596  0.11380545
               0.16482331  0.23864234  0.34545298  0.50000000

Gradients computed in Reciprocal space

---------------------------------------------------------------------------------




     ----------------------------------------------------------------

     Non-local correlation energy =              9.747205055134170

     ----------------------------------------------------------------

     Message from routine qexsd_readschema :
     xml data file ./out/calc.save/data-file-schema.xml not found
     Cannot read wfcs: file not found
     Starting wfcs are  661 randomized atomic wfcs

     total cpu time spent up to now is       17.0 secs

     Self-consistent Calculation

     iteration #  1     ecut=    60.00 Ry     beta= 0.20
     CG style diagonalization

---- Real-time Memory Report at c_bands before calling an iterative solver
             0 MiB given to the printing process from OS
             0 MiB allocation reported by mallinfo(arena+hblkhd)
        172911 MiB available memory on the node where the printing process lives
------------------
     c_bands:  4 eigenvalues not converged
     ethr =  1.00E-05,  avg # of iterations = 20.2

     negative rho (up, down):  5.080E+00 4.992E+00


     ----------------------------------------------------------------

     Non-local correlation energy =              9.368200254645313

     ----------------------------------------------------------------


     total cpu time spent up to now is     1539.2 secs

     total energy              =  -11541.94180385 Ry
     estimated scf accuracy    <     229.21817796 Ry

     total magnetization       =     2.62 Bohr mag/cell
     absolute magnetization    =     3.13 Bohr mag/cell

     iteration #  2     ecut=    60.00 Ry     beta= 0.20
     CG style diagonalization

---- Real-time Memory Report at c_bands before calling an iterative solver
             0 MiB given to the printing process from OS
             0 MiB allocation reported by mallinfo(arena+hblkhd)
        171256 MiB available memory on the node where the printing process lives
------------------
     ethr =  1.00E-02,  avg # of iterations =  4.7

     negative rho (up, down):  5.050E+00 4.968E+00


     ----------------------------------------------------------------

     Non-local correlation energy =              9.325089147970541

     ----------------------------------------------------------------


     total cpu time spent up to now is     1858.4 secs

     total energy              =  -11560.70137555 Ry
     estimated scf accuracy    <     481.42519321 Ry

     total magnetization       =    -0.76 Bohr mag/cell
     absolute magnetization    =     5.42 Bohr mag/cell

     iteration #  3     ecut=    60.00 Ry     beta= 0.20
     CG style diagonalization

---- Real-time Memory Report at c_bands before calling an iterative solver
             0 MiB given to the printing process from OS
             0 MiB allocation reported by mallinfo(arena+hblkhd)
        171158 MiB available memory on the node where the printing process lives
------------------
     ethr =  1.00E-02,  avg # of iterations =  3.6

     negative rho (up, down):  5.001E+00 4.926E+00


     ----------------------------------------------------------------

     Non-local correlation energy =              9.280429021083730

     ----------------------------------------------------------------


     total cpu time spent up to now is     2089.3 secs

     total energy              =  -11587.19447586 Ry
     estimated scf accuracy    <      18.12954855 Ry

     total magnetization       =     5.92 Bohr mag/cell
     absolute magnetization    =     6.97 Bohr mag/cell

     iteration #  4     ecut=    60.00 Ry     beta= 0.20
     CG style diagonalization

---- Real-time Memory Report at c_bands before calling an iterative solver
             0 MiB given to the printing process from OS
             0 MiB allocation reported by mallinfo(arena+hblkhd)
        171059 MiB available memory on the node where the printing process lives
------------------
     c_bands:  3 eigenvalues not converged
     ethr =  2.06E-03,  avg # of iterations =  4.0

     negative rho (up, down):  4.989E+00 4.917E+00


     ----------------------------------------------------------------

     Non-local correlation energy =              9.271250395385012

     ----------------------------------------------------------------


     total cpu time spent up to now is     2354.5 secs

     total energy              =  -11586.77960977 Ry
     estimated scf accuracy    <     231.76881392 Ry

     total magnetization       =     1.63 Bohr mag/cell
     absolute magnetization    =     2.86 Bohr mag/cell

     iteration #  5     ecut=    60.00 Ry     beta= 0.20
     CG style diagonalization

---- Real-time Memory Report at c_bands before calling an iterative solver
             0 MiB given to the printing process from OS
             0 MiB allocation reported by mallinfo(arena+hblkhd)
        170956 MiB available memory on the node where the printing process lives
------------------
     ethr =  2.06E-03,  avg # of iterations =  3.0

     negative rho (up, down):  4.981E+00 4.910E+00


     ----------------------------------------------------------------

     Non-local correlation energy =              9.266071168452255

     ----------------------------------------------------------------


     total cpu time spent up to now is     2535.1 secs

     total energy              =  -11590.60390580 Ry
     estimated scf accuracy    <      26.56972447 Ry

     total magnetization       =     4.19 Bohr mag/cell
     absolute magnetization    =     4.48 Bohr mag/cell

     iteration #  6     ecut=    60.00 Ry     beta= 0.20
     CG style diagonalization

---- Real-time Memory Report at c_bands before calling an iterative solver
             0 MiB given to the printing process from OS
             0 MiB allocation reported by mallinfo(arena+hblkhd)
        170876 MiB available memory on the node where the printing process lives
------------------
     ethr =  2.06E-03,  avg # of iterations =  3.0

     negative rho (up, down):  4.950E+00 4.888E+00


     ----------------------------------------------------------------

     Non-local correlation energy =              9.250878171695977

     ----------------------------------------------------------------


     total cpu time spent up to now is     2714.4 secs

     total energy              =  -11590.64559143 Ry
     estimated scf accuracy    <      11.68901454 Ry

     total magnetization       =     4.18 Bohr mag/cell
     absolute magnetization    =     4.43 Bohr mag/cell

     iteration #  7     ecut=    60.00 Ry     beta= 0.20
     CG style diagonalization

---- Real-time Memory Report at c_bands before calling an iterative solver
             0 MiB given to the printing process from OS
             0 MiB allocation reported by mallinfo(arena+hblkhd)
        170763 MiB available memory on the node where the printing process lives
------------------
     ethr =  1.33E-03,  avg # of iterations =  3.0

     negative rho (up, down):  4.935E+00 4.877E+00


     ----------------------------------------------------------------

     Non-local correlation energy =              9.244734600820435

     ----------------------------------------------------------------


     total cpu time spent up to now is     2896.4 secs

     total energy              =  -11590.14282705 Ry
     estimated scf accuracy    <      57.99926060 Ry

     total magnetization       =     2.87 Bohr mag/cell
     absolute magnetization    =     3.16 Bohr mag/cell

     iteration #  8     ecut=    60.00 Ry     beta= 0.20
     CG style diagonalization

---- Real-time Memory Report at c_bands before calling an iterative solver
             0 MiB given to the printing process from OS
             0 MiB allocation reported by mallinfo(arena+hblkhd)
        170669 MiB available memory on the node where the printing process lives
------------------
     ethr =  1.33E-03,  avg # of iterations =  3.0

     negative rho (up, down):  4.926E+00 4.871E+00


     ----------------------------------------------------------------

     Non-local correlation energy =              9.241933545782249

     ----------------------------------------------------------------


     total cpu time spent up to now is     3074.7 secs

     total energy              =  -11590.96828094 Ry
     estimated scf accuracy    <      32.93802749 Ry

     total magnetization       =     3.20 Bohr mag/cell
     absolute magnetization    =     3.46 Bohr mag/cell

     iteration #  9     ecut=    60.00 Ry     beta= 0.20
     CG style diagonalization

---- Real-time Memory Report at c_bands before calling an iterative solver
             0 MiB given to the printing process from OS
             0 MiB allocation reported by mallinfo(arena+hblkhd)
        170569 MiB available memory on the node where the printing process lives
------------------
     ethr =  1.33E-03,  avg # of iterations =  3.0

     negative rho (up, down):  4.922E+00 4.868E+00


     ----------------------------------------------------------------

     Non-local correlation energy =              9.241154211459438

     ----------------------------------------------------------------


     total cpu time spent up to now is     3253.8 secs

     total energy              =  -11591.25809510 Ry
     estimated scf accuracy    <      10.94839139 Ry

     total magnetization       =     3.50 Bohr mag/cell
     absolute magnetization    =     3.75 Bohr mag/cell

     iteration # 10     ecut=    60.00 Ry     beta= 0.20
     CG style diagonalization

---- Real-time Memory Report at c_bands before calling an iterative solver
             0 MiB given to the printing process from OS
             0 MiB allocation reported by mallinfo(arena+hblkhd)
        170472 MiB available memory on the node where the printing process lives
------------------
     ethr =  1.24E-03,  avg # of iterations =  3.0

     negative rho (up, down):  4.918E+00 4.866E+00


     ----------------------------------------------------------------

     Non-local correlation energy =              9.240351930573020

     ----------------------------------------------------------------


     total cpu time spent up to now is     3432.0 secs

     total energy              =  -11591.29581936 Ry
     estimated scf accuracy    <       9.64675345 Ry

     total magnetization       =     3.58 Bohr mag/cell
     absolute magnetization    =     3.81 Bohr mag/cell

     iteration # 11     ecut=    60.00 Ry     beta= 0.20
     CG style diagonalization

---- Real-time Memory Report at c_bands before calling an iterative solver
             0 MiB given to the printing process from OS
             0 MiB allocation reported by mallinfo(arena+hblkhd)
        170491 MiB available memory on the node where the printing process lives
------------------
     ethr =  1.09E-03,  avg # of iterations =  3.0

     negative rho (up, down):  4.913E+00 4.862E+00


     ----------------------------------------------------------------

     Non-local correlation energy =              9.239847951626651

     ----------------------------------------------------------------


     total cpu time spent up to now is     3610.5 secs

     total energy              =  -11591.39500962 Ry
     estimated scf accuracy    <       1.28234480 Ry

     total magnetization       =     3.84 Bohr mag/cell
     absolute magnetization    =     4.05 Bohr mag/cell

     iteration # 12     ecut=    60.00 Ry     beta= 0.20
     CG style diagonalization

---- Real-time Memory Report at c_bands before calling an iterative solver
             0 MiB given to the printing process from OS
             0 MiB allocation reported by mallinfo(arena+hblkhd)
        170488 MiB available memory on the node where the printing process lives
------------------
     ethr =  1.46E-04,  avg # of iterations =  3.2

     negative rho (up, down):  4.905E+00 4.857E+00


     ----------------------------------------------------------------

     Non-local correlation energy =              9.240271134747912

     ----------------------------------------------------------------


     total cpu time spent up to now is     3804.4 secs

     total energy              =  -11591.33868857 Ry
     estimated scf accuracy    <       1.52145767 Ry

     total magnetization       =     3.85 Bohr mag/cell
     absolute magnetization    =     4.06 Bohr mag/cell

     iteration # 13     ecut=    60.00 Ry     beta= 0.20
     CG style diagonalization

---- Real-time Memory Report at c_bands before calling an iterative solver
             0 MiB given to the printing process from OS
             0 MiB allocation reported by mallinfo(arena+hblkhd)
        170491 MiB available memory on the node where the printing process lives
------------------
     ethr =  1.46E-04,  avg # of iterations =  3.0

     negative rho (up, down):  4.899E+00 4.854E+00


     ----------------------------------------------------------------

     Non-local correlation energy =              9.239807640527683

     ----------------------------------------------------------------


     total cpu time spent up to now is     3982.6 secs

     total energy              =  -11591.35610527 Ry
     estimated scf accuracy    <       1.29576893 Ry

     total magnetization       =     4.12 Bohr mag/cell
     absolute magnetization    =     4.32 Bohr mag/cell

     iteration # 14     ecut=    60.00 Ry     beta= 0.20
     CG style diagonalization

---- Real-time Memory Report at c_bands before calling an iterative solver
             0 MiB given to the printing process from OS
             0 MiB allocation reported by mallinfo(arena+hblkhd)
        170485 MiB available memory on the node where the printing process lives
------------------
     ethr =  1.46E-04,  avg # of iterations =  3.0

     negative rho (up, down):  4.890E+00 4.848E+00


     ----------------------------------------------------------------

     Non-local correlation energy =              9.238379423197379

     ----------------------------------------------------------------


     total cpu time spent up to now is     4160.8 secs

     total energy              =  -11591.35942904 Ry
     estimated scf accuracy    <       0.88749112 Ry

     total magnetization       =     4.10 Bohr mag/cell
     absolute magnetization    =     4.31 Bohr mag/cell

     iteration # 15     ecut=    60.00 Ry     beta= 0.20
     CG style diagonalization

---- Real-time Memory Report at c_bands before calling an iterative solver
             0 MiB given to the printing process from OS
             0 MiB allocation reported by mallinfo(arena+hblkhd)
        170484 MiB available memory on the node where the printing process lives
------------------
     ethr =  1.01E-04,  avg # of iterations =  3.0

     negative rho (up, down):  4.892E+00 4.849E+00


     ----------------------------------------------------------------

     Non-local correlation energy =              9.239845512216480

     ----------------------------------------------------------------


     total cpu time spent up to now is     4339.0 secs

     total energy              =  -11591.36497399 Ry
     estimated scf accuracy    <       1.17722700 Ry

     total magnetization       =     4.00 Bohr mag/cell
     absolute magnetization    =     4.21 Bohr mag/cell

     iteration # 16     ecut=    60.00 Ry     beta= 0.20
     CG style diagonalization

---- Real-time Memory Report at c_bands before calling an iterative solver
             0 MiB given to the printing process from OS
             0 MiB allocation reported by mallinfo(arena+hblkhd)
        170471 MiB available memory on the node where the printing process lives
------------------
     ethr =  1.01E-04,  avg # of iterations =  3.0

     negative rho (up, down):  4.883E+00 4.844E+00


     ----------------------------------------------------------------

     Non-local correlation energy =              9.239712722173346

     ----------------------------------------------------------------


     total cpu time spent up to now is     4517.2 secs

     total energy              =  -11591.37963226 Ry
     estimated scf accuracy    <       0.25904253 Ry

     total magnetization       =     4.04 Bohr mag/cell
     absolute magnetization    =     4.25 Bohr mag/cell

     iteration # 17     ecut=    60.00 Ry     beta= 0.20
     CG style diagonalization

---- Real-time Memory Report at c_bands before calling an iterative solver
             0 MiB given to the printing process from OS
             0 MiB allocation reported by mallinfo(arena+hblkhd)
        170491 MiB available memory on the node where the printing process lives
------------------
     c_bands:  1 eigenvalues not converged
     ethr =  2.94E-05,  avg # of iterations =  3.1

     negative rho (up, down):  4.878E+00 4.841E+00


     ----------------------------------------------------------------

     Non-local correlation energy =              9.239346320472920

     ----------------------------------------------------------------


     total cpu time spent up to now is     4703.1 secs

     total energy              =  -11591.37646016 Ry
     estimated scf accuracy    <       0.20391571 Ry

     total magnetization       =     3.98 Bohr mag/cell
     absolute magnetization    =     4.19 Bohr mag/cell

     iteration # 18     ecut=    60.00 Ry     beta= 0.20
     CG style diagonalization

---- Real-time Memory Report at c_bands before calling an iterative solver
             0 MiB given to the printing process from OS
             0 MiB allocation reported by mallinfo(arena+hblkhd)
        170478 MiB available memory on the node where the printing process lives
------------------
     c_bands:  1 eigenvalues not converged
     ethr =  2.31E-05,  avg # of iterations =  3.1

     negative rho (up, down):  4.877E+00 4.841E+00


     ----------------------------------------------------------------

     Non-local correlation energy =              9.239371636299149

     ----------------------------------------------------------------


     total cpu time spent up to now is     4885.6 secs

     total energy              =  -11591.36918204 Ry
     estimated scf accuracy    <       0.38105035 Ry

     total magnetization       =     3.96 Bohr mag/cell
     absolute magnetization    =     4.17 Bohr mag/cell

     iteration # 19     ecut=    60.00 Ry     beta= 0.20
     CG style diagonalization

---- Real-time Memory Report at c_bands before calling an iterative solver
             0 MiB given to the printing process from OS
             0 MiB allocation reported by mallinfo(arena+hblkhd)
        170480 MiB available memory on the node where the printing process lives
------------------
     ethr =  2.31E-05,  avg # of iterations =  3.0

     negative rho (up, down):  4.872E+00 4.838E+00


     ----------------------------------------------------------------

     Non-local correlation energy =              9.238588233900177

     ----------------------------------------------------------------


     total cpu time spent up to now is     5063.5 secs

     total energy              =  -11591.36149410 Ry
     estimated scf accuracy    <       1.14702600 Ry

     total magnetization       =     3.94 Bohr mag/cell
     absolute magnetization    =     4.15 Bohr mag/cell

     iteration # 20     ecut=    60.00 Ry     beta= 0.20
     CG style diagonalization

---- Real-time Memory Report at c_bands before calling an iterative solver
             0 MiB given to the printing process from OS
             0 MiB allocation reported by mallinfo(arena+hblkhd)
        170468 MiB available memory on the node where the printing process lives
------------------
     ethr =  2.31E-05,  avg # of iterations =  3.0

     negative rho (up, down):  4.875E+00 4.840E+00


     ----------------------------------------------------------------

     Non-local correlation energy =              9.239137082899674

     ----------------------------------------------------------------


     total cpu time spent up to now is     5241.5 secs

     total energy              =  -11591.37530670 Ry
     estimated scf accuracy    <       0.16976159 Ry

     total magnetization       =     3.96 Bohr mag/cell
     absolute magnetization    =     4.18 Bohr mag/cell

     iteration # 21     ecut=    60.00 Ry     beta= 0.20
     CG style diagonalization

---- Real-time Memory Report at c_bands before calling an iterative solver
             0 MiB given to the printing process from OS
             0 MiB allocation reported by mallinfo(arena+hblkhd)
        170482 MiB available memory on the node where the printing process lives
------------------
     ethr =  1.93E-05,  avg # of iterations =  3.0

     negative rho (up, down):  4.874E+00 4.840E+00


     ----------------------------------------------------------------

     Non-local correlation energy =              9.239003445339916

     ----------------------------------------------------------------


     total cpu time spent up to now is     5419.9 secs

     total energy              =  -11591.36455161 Ry
     estimated scf accuracy    <       1.08446322 Ry

     total magnetization       =     3.96 Bohr mag/cell
     absolute magnetization    =     4.18 Bohr mag/cell

     iteration # 22     ecut=    60.00 Ry     beta= 0.20
     CG style diagonalization

---- Real-time Memory Report at c_bands before calling an iterative solver
             0 MiB given to the printing process from OS
             0 MiB allocation reported by mallinfo(arena+hblkhd)
        170478 MiB available memory on the node where the printing process lives
------------------
     ethr =  1.93E-05,  avg # of iterations =  3.0

     negative rho (up, down):  4.870E+00 4.838E+00


     ----------------------------------------------------------------

     Non-local correlation energy =              9.238165123280190

     ----------------------------------------------------------------


     total cpu time spent up to now is     5597.9 secs

     total energy              =  -11591.37700352 Ry
     estimated scf accuracy    <       0.23346082 Ry

     total magnetization       =     3.98 Bohr mag/cell
     absolute magnetization    =     4.19 Bohr mag/cell

     iteration # 23     ecut=    60.00 Ry     beta= 0.20
     CG style diagonalization

---- Real-time Memory Report at c_bands before calling an iterative solver
             0 MiB given to the printing process from OS
             0 MiB allocation reported by mallinfo(arena+hblkhd)
        170480 MiB available memory on the node where the printing process lives
------------------
     ethr =  1.93E-05,  avg # of iterations =  3.0

     negative rho (up, down):  4.870E+00 4.838E+00


     ----------------------------------------------------------------

     Non-local correlation energy =              9.238230599514800

     ----------------------------------------------------------------


     total cpu time spent up to now is     5776.5 secs

     total energy              =  -11591.37824643 Ry
     estimated scf accuracy    <       0.14670135 Ry

     total magnetization       =     3.97 Bohr mag/cell
     absolute magnetization    =     4.19 Bohr mag/cell

     iteration # 24     ecut=    60.00 Ry     beta= 0.20
     CG style diagonalization

---- Real-time Memory Report at c_bands before calling an iterative solver
             0 MiB given to the printing process from OS
             0 MiB allocation reported by mallinfo(arena+hblkhd)
        170473 MiB available memory on the node where the printing process lives
------------------
     ethr =  1.67E-05,  avg # of iterations =  3.0

     negative rho (up, down):  4.869E+00 4.838E+00


     ----------------------------------------------------------------

     Non-local correlation energy =              9.238009171319025

     ----------------------------------------------------------------


     total cpu time spent up to now is     5954.4 secs

     total energy              =  -11591.38004286 Ry
     estimated scf accuracy    <       0.09199402 Ry

     total magnetization       =     3.96 Bohr mag/cell
     absolute magnetization    =     4.18 Bohr mag/cell

     iteration # 25     ecut=    60.00 Ry     beta= 0.20
     CG style diagonalization

---- Real-time Memory Report at c_bands before calling an iterative solver
             0 MiB given to the printing process from OS
             0 MiB allocation reported by mallinfo(arena+hblkhd)
        170474 MiB available memory on the node where the printing process lives
------------------
     c_bands:  1 eigenvalues not converged
     ethr =  1.04E-05,  avg # of iterations =  3.0

     negative rho (up, down):  4.871E+00 4.838E+00


     ----------------------------------------------------------------

     Non-local correlation energy =              9.238335344824092

     ----------------------------------------------------------------


     total cpu time spent up to now is     6136.0 secs

     total energy              =  -11591.38079967 Ry
     estimated scf accuracy    <       0.08319999 Ry

     total magnetization       =     3.95 Bohr mag/cell
     absolute magnetization    =     4.17 Bohr mag/cell

     iteration # 26     ecut=    60.00 Ry     beta= 0.20
     CG style diagonalization

---- Real-time Memory Report at c_bands before calling an iterative solver
             0 MiB given to the printing process from OS
             0 MiB allocation reported by mallinfo(arena+hblkhd)
        170488 MiB available memory on the node where the printing process lives
------------------
     ethr =  9.44E-06,  avg # of iterations =  3.0

     negative rho (up, down):  4.870E+00 4.838E+00


     ----------------------------------------------------------------

     Non-local correlation energy =              9.238020267481174

     ----------------------------------------------------------------


     total cpu time spent up to now is     6314.6 secs

     total energy              =  -11591.38144639 Ry
     estimated scf accuracy    <       0.06288430 Ry

     total magnetization       =     3.96 Bohr mag/cell
     absolute magnetization    =     4.17 Bohr mag/cell

     iteration # 27     ecut=    60.00 Ry     beta= 0.20
     CG style diagonalization

---- Real-time Memory Report at c_bands before calling an iterative solver
             0 MiB given to the printing process from OS
             0 MiB allocation reported by mallinfo(arena+hblkhd)
        170482 MiB available memory on the node where the printing process lives
------------------
     ethr =  7.14E-06,  avg # of iterations =  3.0

     negative rho (up, down):  4.869E+00 4.838E+00


     ----------------------------------------------------------------

     Non-local correlation energy =              9.237753599192288

     ----------------------------------------------------------------


     total cpu time spent up to now is     6493.7 secs

     total energy              =  -11591.38238581 Ry
     estimated scf accuracy    <       0.00873739 Ry

     total magnetization       =     3.96 Bohr mag/cell
     absolute magnetization    =     4.18 Bohr mag/cell

     iteration # 28     ecut=    60.00 Ry     beta= 0.20
     CG style diagonalization

---- Real-time Memory Report at c_bands before calling an iterative solver
             0 MiB given to the printing process from OS
             0 MiB allocation reported by mallinfo(arena+hblkhd)
        170484 MiB available memory on the node where the printing process lives
------------------
     c_bands:  1 eigenvalues not converged
     c_bands:  2 eigenvalues not converged
     ethr =  9.92E-07,  avg # of iterations =  3.1

     negative rho (up, down):  4.868E+00 4.837E+00


     ----------------------------------------------------------------

     Non-local correlation energy =              9.237520995950270

     ----------------------------------------------------------------


     total cpu time spent up to now is     6683.6 secs

     total energy              =  -11591.38216539 Ry
     estimated scf accuracy    <       0.00932449 Ry

     total magnetization       =     3.96 Bohr mag/cell
     absolute magnetization    =     4.18 Bohr mag/cell

     iteration # 29     ecut=    60.00 Ry     beta= 0.20
     CG style diagonalization

---- Real-time Memory Report at c_bands before calling an iterative solver
             0 MiB given to the printing process from OS
             0 MiB allocation reported by mallinfo(arena+hblkhd)
        170470 MiB available memory on the node where the printing process lives
------------------
     c_bands:  1 eigenvalues not converged
     ethr =  9.92E-07,  avg # of iterations =  3.1

     negative rho (up, down):  4.868E+00 4.837E+00


     ----------------------------------------------------------------

     Non-local correlation energy =              9.237429583809107

     ----------------------------------------------------------------


     total cpu time spent up to now is     6866.6 secs

     total energy              =  -11591.38203491 Ry
     estimated scf accuracy    <       0.01409930 Ry

     total magnetization       =     3.96 Bohr mag/cell
     absolute magnetization    =     4.18 Bohr mag/cell

     iteration # 30     ecut=    60.00 Ry     beta= 0.20
     CG style diagonalization

---- Real-time Memory Report at c_bands before calling an iterative solver
             0 MiB given to the printing process from OS
             0 MiB allocation reported by mallinfo(arena+hblkhd)
        170472 MiB available memory on the node where the printing process lives
------------------
     ethr =  9.92E-07,  avg # of iterations =  3.0

     negative rho (up, down):  4.867E+00 4.837E+00


     ----------------------------------------------------------------

     Non-local correlation energy =              9.237087155352313

     ----------------------------------------------------------------


     total cpu time spent up to now is     7044.8 secs

     total energy              =  -11591.38184383 Ry
     estimated scf accuracy    <       0.00955773 Ry

     total magnetization       =     3.96 Bohr mag/cell
     absolute magnetization    =     4.18 Bohr mag/cell

     iteration # 31     ecut=    60.00 Ry     beta= 0.20
     CG style diagonalization

---- Real-time Memory Report at c_bands before calling an iterative solver
             0 MiB given to the printing process from OS
             0 MiB allocation reported by mallinfo(arena+hblkhd)
        170477 MiB available memory on the node where the printing process lives
------------------
     ethr =  9.92E-07,  avg # of iterations =  3.1

     negative rho (up, down):  4.867E+00 4.837E+00


     ----------------------------------------------------------------

     Non-local correlation energy =              9.237100166599861

     ----------------------------------------------------------------


     total cpu time spent up to now is     7231.8 secs

     total energy              =  -11591.38135693 Ry
     estimated scf accuracy    <       0.03399059 Ry

     total magnetization       =     3.95 Bohr mag/cell
     absolute magnetization    =     4.18 Bohr mag/cell

     iteration # 32     ecut=    60.00 Ry     beta= 0.20
     CG style diagonalization

---- Real-time Memory Report at c_bands before calling an iterative solver
             0 MiB given to the printing process from OS
             0 MiB allocation reported by mallinfo(arena+hblkhd)
        170481 MiB available memory on the node where the printing process lives
------------------
     ethr =  9.92E-07,  avg # of iterations =  3.0

     negative rho (up, down):  4.866E+00 4.837E+00


     ----------------------------------------------------------------

     Non-local correlation energy =              9.236781806739213

     ----------------------------------------------------------------


     total cpu time spent up to now is     7409.8 secs

     total energy              =  -11591.38140939 Ry
     estimated scf accuracy    <       0.02545698 Ry

     total magnetization       =     3.96 Bohr mag/cell
     absolute magnetization    =     4.18 Bohr mag/cell

     iteration # 33     ecut=    60.00 Ry     beta= 0.20
     CG style diagonalization

---- Real-time Memory Report at c_bands before calling an iterative solver
             0 MiB given to the printing process from OS
             0 MiB allocation reported by mallinfo(arena+hblkhd)
        170469 MiB available memory on the node where the printing process lives
------------------
     ethr =  9.92E-07,  avg # of iterations =  3.1

     negative rho (up, down):  4.866E+00 4.837E+00


     ----------------------------------------------------------------

     Non-local correlation energy =              9.236767792571726

     ----------------------------------------------------------------


     total cpu time spent up to now is     7595.3 secs

     total energy              =  -11591.38158693 Ry
     estimated scf accuracy    <       0.00765722 Ry

     total magnetization       =     3.94 Bohr mag/cell
     absolute magnetization    =     4.17 Bohr mag/cell

     iteration # 34     ecut=    60.00 Ry     beta= 0.20
     CG style diagonalization

---- Real-time Memory Report at c_bands before calling an iterative solver
             0 MiB given to the printing process from OS
             0 MiB allocation reported by mallinfo(arena+hblkhd)
        170458 MiB available memory on the node where the printing process lives
------------------
     ethr =  8.69E-07,  avg # of iterations =  3.0

     negative rho (up, down):  4.866E+00 4.837E+00


     ----------------------------------------------------------------

     Non-local correlation energy =              9.236676538208235

     ----------------------------------------------------------------


     total cpu time spent up to now is     7773.3 secs

     total energy              =  -11591.38146644 Ry
     estimated scf accuracy    <       0.01087283 Ry

     total magnetization       =     3.95 Bohr mag/cell
     absolute magnetization    =     4.17 Bohr mag/cell

     iteration # 35     ecut=    60.00 Ry     beta= 0.20
     CG style diagonalization

---- Real-time Memory Report at c_bands before calling an iterative solver
             0 MiB given to the printing process from OS
             0 MiB allocation reported by mallinfo(arena+hblkhd)
        170459 MiB available memory on the node where the printing process lives
------------------
     ethr =  8.69E-07,  avg # of iterations =  3.0

     negative rho (up, down):  4.866E+00 4.837E+00


     ----------------------------------------------------------------

     Non-local correlation energy =              9.236434862266712

     ----------------------------------------------------------------


     total cpu time spent up to now is     7951.1 secs

     total energy              =  -11591.38122077 Ry
     estimated scf accuracy    <       0.01795898 Ry

     total magnetization       =     3.96 Bohr mag/cell
     absolute magnetization    =     4.18 Bohr mag/cell

     iteration # 36     ecut=    60.00 Ry     beta= 0.20
     CG style diagonalization

---- Real-time Memory Report at c_bands before calling an iterative solver
             0 MiB given to the printing process from OS
             0 MiB allocation reported by mallinfo(arena+hblkhd)
        170469 MiB available memory on the node where the printing process lives
------------------
     ethr =  8.69E-07,  avg # of iterations =  3.1

     negative rho (up, down):  4.866E+00 4.837E+00


     ----------------------------------------------------------------

     Non-local correlation energy =              9.236583817750954

     ----------------------------------------------------------------


     total cpu time spent up to now is     8140.0 secs

     total energy              =  -11591.38128990 Ry
     estimated scf accuracy    <       0.01555015 Ry

     total magnetization       =     3.96 Bohr mag/cell
     absolute magnetization    =     4.18 Bohr mag/cell

     iteration # 37     ecut=    60.00 Ry     beta= 0.20
     CG style diagonalization

---- Real-time Memory Report at c_bands before calling an iterative solver
             0 MiB given to the printing process from OS
             0 MiB allocation reported by mallinfo(arena+hblkhd)
        170458 MiB available memory on the node where the printing process lives
------------------
     ethr =  8.69E-07,  avg # of iterations =  3.0

     negative rho (up, down):  4.866E+00 4.837E+00


     ----------------------------------------------------------------

     Non-local correlation energy =              9.236500059530998

     ----------------------------------------------------------------


     total cpu time spent up to now is     8319.9 secs

     total energy              =  -11591.38153886 Ry
     estimated scf accuracy    <       0.00447024 Ry

     total magnetization       =     3.96 Bohr mag/cell
     absolute magnetization    =     4.18 Bohr mag/cell

     iteration # 38     ecut=    60.00 Ry     beta= 0.20
     CG style diagonalization

---- Real-time Memory Report at c_bands before calling an iterative solver
             0 MiB given to the printing process from OS
             0 MiB allocation reported by mallinfo(arena+hblkhd)
        170464 MiB available memory on the node where the printing process lives
------------------
     ethr =  5.07E-07,  avg # of iterations =  3.0

     negative rho (up, down):  4.866E+00 4.837E+00


     ----------------------------------------------------------------

     Non-local correlation energy =              9.236399936325970

     ----------------------------------------------------------------


     total cpu time spent up to now is     8497.8 secs

     total energy              =  -11591.38154332 Ry
     estimated scf accuracy    <       0.00232659 Ry

     total magnetization       =     3.95 Bohr mag/cell
     absolute magnetization    =     4.18 Bohr mag/cell

     iteration # 39     ecut=    60.00 Ry     beta= 0.20
     CG style diagonalization

---- Real-time Memory Report at c_bands before calling an iterative solver
             0 MiB given to the printing process from OS
             0 MiB allocation reported by mallinfo(arena+hblkhd)
        170469 MiB available memory on the node where the printing process lives
------------------
     ethr =  2.64E-07,  avg # of iterations =  3.0

     negative rho (up, down):  4.866E+00 4.837E+00


     ----------------------------------------------------------------

     Non-local correlation energy =              9.236394615616007

     ----------------------------------------------------------------


     total cpu time spent up to now is     8675.8 secs

     total energy              =  -11591.38154999 Ry
     estimated scf accuracy    <       0.00274190 Ry

     total magnetization       =     3.96 Bohr mag/cell
     absolute magnetization    =     4.18 Bohr mag/cell

     iteration # 40     ecut=    60.00 Ry     beta= 0.20
     CG style diagonalization

---- Real-time Memory Report at c_bands before calling an iterative solver
             0 MiB given to the printing process from OS
             0 MiB allocation reported by mallinfo(arena+hblkhd)
        170463 MiB available memory on the node where the printing process lives
------------------
     ethr =  2.64E-07,  avg # of iterations =  3.0

     negative rho (up, down):  4.865E+00 4.837E+00


     ----------------------------------------------------------------

     Non-local correlation energy =              9.236275260531102

     ----------------------------------------------------------------


     total cpu time spent up to now is     8853.6 secs

     total energy              =  -11591.38153090 Ry
     estimated scf accuracy    <       0.00117589 Ry

     total magnetization       =     3.96 Bohr mag/cell
     absolute magnetization    =     4.18 Bohr mag/cell

     iteration # 41     ecut=    60.00 Ry     beta= 0.20
     CG style diagonalization

---- Real-time Memory Report at c_bands before calling an iterative solver
             0 MiB given to the printing process from OS
             0 MiB allocation reported by mallinfo(arena+hblkhd)
        170459 MiB available memory on the node where the printing process lives
------------------
     ethr =  1.33E-07,  avg # of iterations =  3.0

     negative rho (up, down):  4.865E+00 4.837E+00


     ----------------------------------------------------------------

     Non-local correlation energy =              9.236250283075051

     ----------------------------------------------------------------


     total cpu time spent up to now is     9033.2 secs

     total energy              =  -11591.38151318 Ry
     estimated scf accuracy    <       0.00095136 Ry

     total magnetization       =     3.96 Bohr mag/cell
     absolute magnetization    =     4.18 Bohr mag/cell

     iteration # 42     ecut=    60.00 Ry     beta= 0.20
     CG style diagonalization

---- Real-time Memory Report at c_bands before calling an iterative solver
             0 MiB given to the printing process from OS
             0 MiB allocation reported by mallinfo(arena+hblkhd)
        170448 MiB available memory on the node where the printing process lives
------------------
     ethr =  1.08E-07,  avg # of iterations =  3.0

     negative rho (up, down):  4.865E+00 4.837E+00


     ----------------------------------------------------------------

     Non-local correlation energy =              9.236179446194537

     ----------------------------------------------------------------


     total cpu time spent up to now is     9211.0 secs

     total energy              =  -11591.38147618 Ry
     estimated scf accuracy    <       0.00321578 Ry

     total magnetization       =     3.96 Bohr mag/cell
     absolute magnetization    =     4.18 Bohr mag/cell

     iteration # 43     ecut=    60.00 Ry     beta= 0.20
     CG style diagonalization

---- Real-time Memory Report at c_bands before calling an iterative solver
             0 MiB given to the printing process from OS
             0 MiB allocation reported by mallinfo(arena+hblkhd)
        170458 MiB available memory on the node where the printing process lives
------------------
     ethr =  1.08E-07,  avg # of iterations =  3.0

     negative rho (up, down):  4.865E+00 4.837E+00


     ----------------------------------------------------------------

     Non-local correlation energy =              9.236112019526766

     ----------------------------------------------------------------


     total cpu time spent up to now is     9389.7 secs

     total energy              =  -11591.38149763 Ry
     estimated scf accuracy    <       0.00046113 Ry

     total magnetization       =     3.96 Bohr mag/cell
     absolute magnetization    =     4.19 Bohr mag/cell

     iteration # 44     ecut=    60.00 Ry     beta= 0.20
     CG style diagonalization

---- Real-time Memory Report at c_bands before calling an iterative solver
             0 MiB given to the printing process from OS
             0 MiB allocation reported by mallinfo(arena+hblkhd)
        170455 MiB available memory on the node where the printing process lives
------------------
     ethr =  5.23E-08,  avg # of iterations =  3.0

     negative rho (up, down):  4.865E+00 4.837E+00


     ----------------------------------------------------------------

     Non-local correlation energy =              9.236077705600682

     ----------------------------------------------------------------


     total cpu time spent up to now is     9568.0 secs

     total energy              =  -11591.38147976 Ry
     estimated scf accuracy    <       0.00099657 Ry

     total magnetization       =     3.96 Bohr mag/cell
     absolute magnetization    =     4.19 Bohr mag/cell

     iteration # 45     ecut=    60.00 Ry     beta= 0.20
     CG style diagonalization

---- Real-time Memory Report at c_bands before calling an iterative solver
             0 MiB given to the printing process from OS
             0 MiB allocation reported by mallinfo(arena+hblkhd)
        170457 MiB available memory on the node where the printing process lives
------------------
     ethr =  5.23E-08,  avg # of iterations =  3.0

     negative rho (up, down):  4.865E+00 4.837E+00


     ----------------------------------------------------------------

     Non-local correlation energy =              9.235888584264202

     ----------------------------------------------------------------


     total cpu time spent up to now is     9745.9 secs

     total energy              =  -11591.38150361 Ry
     estimated scf accuracy    <       0.00211540 Ry

     total magnetization       =     3.96 Bohr mag/cell
     absolute magnetization    =     4.19 Bohr mag/cell

     iteration # 46     ecut=    60.00 Ry     beta= 0.20
     CG style diagonalization

---- Real-time Memory Report at c_bands before calling an iterative solver
             0 MiB given to the printing process from OS
             0 MiB allocation reported by mallinfo(arena+hblkhd)
        170471 MiB available memory on the node where the printing process lives
------------------
     ethr =  5.23E-08,  avg # of iterations =  3.0

     negative rho (up, down):  4.865E+00 4.837E+00


     ----------------------------------------------------------------

     Non-local correlation energy =              9.235904372242352

     ----------------------------------------------------------------


     total cpu time spent up to now is     9925.5 secs

     total energy              =  -11591.38150448 Ry
     estimated scf accuracy    <       0.00078837 Ry

     total magnetization       =     3.97 Bohr mag/cell
     absolute magnetization    =     4.20 Bohr mag/cell

     iteration # 47     ecut=    60.00 Ry     beta= 0.20
     CG style diagonalization

---- Real-time Memory Report at c_bands before calling an iterative solver
             0 MiB given to the printing process from OS
             0 MiB allocation reported by mallinfo(arena+hblkhd)
        170453 MiB available memory on the node where the printing process lives
------------------
     ethr =  5.23E-08,  avg # of iterations =  3.0

     negative rho (up, down):  4.865E+00 4.837E+00


     ----------------------------------------------------------------

     Non-local correlation energy =              9.235917156570554

     ----------------------------------------------------------------


     total cpu time spent up to now is    10103.3 secs

     total energy              =  -11591.38148842 Ry
     estimated scf accuracy    <       0.00149304 Ry

     total magnetization       =     3.97 Bohr mag/cell
     absolute magnetization    =     4.20 Bohr mag/cell

     iteration # 48     ecut=    60.00 Ry     beta= 0.20
     CG style diagonalization

---- Real-time Memory Report at c_bands before calling an iterative solver
             0 MiB given to the printing process from OS
             0 MiB allocation reported by mallinfo(arena+hblkhd)
        170454 MiB available memory on the node where the printing process lives
------------------
     ethr =  5.23E-08,  avg # of iterations =  3.0

     negative rho (up, down):  4.865E+00 4.837E+00


     ----------------------------------------------------------------

     Non-local correlation energy =              9.235894891025325

     ----------------------------------------------------------------


     total cpu time spent up to now is    10281.1 secs

     total energy              =  -11591.38151263 Ry
     estimated scf accuracy    <       0.00077052 Ry

     total magnetization       =     3.97 Bohr mag/cell
     absolute magnetization    =     4.20 Bohr mag/cell

     iteration # 49     ecut=    60.00 Ry     beta= 0.20
     CG style diagonalization

---- Real-time Memory Report at c_bands before calling an iterative solver
             0 MiB given to the printing process from OS
             0 MiB allocation reported by mallinfo(arena+hblkhd)
        170456 MiB available memory on the node where the printing process lives
------------------
     ethr =  5.23E-08,  avg # of iterations =  3.0

     negative rho (up, down):  4.865E+00 4.837E+00


     ----------------------------------------------------------------

     Non-local correlation energy =              9.235890324449292

     ----------------------------------------------------------------


     total cpu time spent up to now is    10459.2 secs

     total energy              =  -11591.38151452 Ry
     estimated scf accuracy    <       0.00131983 Ry

     total magnetization       =     3.97 Bohr mag/cell
     absolute magnetization    =     4.20 Bohr mag/cell

     iteration # 50     ecut=    60.00 Ry     beta= 0.20
     CG style diagonalization

---- Real-time Memory Report at c_bands before calling an iterative solver
             0 MiB given to the printing process from OS
             0 MiB allocation reported by mallinfo(arena+hblkhd)
        170463 MiB available memory on the node where the printing process lives
------------------
     ethr =  5.23E-08,  avg # of iterations =  3.0

     negative rho (up, down):  4.865E+00 4.837E+00


     ----------------------------------------------------------------

     Non-local correlation energy =              9.235825372766644

     ----------------------------------------------------------------


     total cpu time spent up to now is    10637.0 secs

     total energy              =  -11591.38154708 Ry
     estimated scf accuracy    <       0.00072714 Ry

     total magnetization       =     3.98 Bohr mag/cell
     absolute magnetization    =     4.20 Bohr mag/cell

     iteration # 51     ecut=    60.00 Ry     beta= 0.20
     CG style diagonalization

---- Real-time Memory Report at c_bands before calling an iterative solver
             0 MiB given to the printing process from OS
             0 MiB allocation reported by mallinfo(arena+hblkhd)
        170453 MiB available memory on the node where the printing process lives
------------------
     ethr =  5.23E-08,  avg # of iterations =  3.0

     negative rho (up, down):  4.865E+00 4.837E+00


     ----------------------------------------------------------------

     Non-local correlation energy =              9.235794033918925

     ----------------------------------------------------------------


     total cpu time spent up to now is    10814.8 secs

     total energy              =  -11591.38156742 Ry
     estimated scf accuracy    <       0.00026760 Ry

     total magnetization       =     3.98 Bohr mag/cell
     absolute magnetization    =     4.21 Bohr mag/cell

     iteration # 52     ecut=    60.00 Ry     beta= 0.20
     CG style diagonalization

---- Real-time Memory Report at c_bands before calling an iterative solver
             0 MiB given to the printing process from OS
             0 MiB allocation reported by mallinfo(arena+hblkhd)
        170465 MiB available memory on the node where the printing process lives
------------------
     ethr =  3.04E-08,  avg # of iterations =  3.0

     negative rho (up, down):  4.865E+00 4.837E+00


     ----------------------------------------------------------------

     Non-local correlation energy =              9.235812579319337

     ----------------------------------------------------------------


     total cpu time spent up to now is    10992.7 secs

     total energy              =  -11591.38155458 Ry
     estimated scf accuracy    <       0.00090566 Ry

     total magnetization       =     3.98 Bohr mag/cell
     absolute magnetization    =     4.21 Bohr mag/cell

     iteration # 53     ecut=    60.00 Ry     beta= 0.20
     CG style diagonalization

---- Real-time Memory Report at c_bands before calling an iterative solver
             0 MiB given to the printing process from OS
             0 MiB allocation reported by mallinfo(arena+hblkhd)
        170445 MiB available memory on the node where the printing process lives
------------------
     ethr =  3.04E-08,  avg # of iterations =  3.0

     negative rho (up, down):  4.865E+00 4.837E+00


     ----------------------------------------------------------------

     Non-local correlation energy =              9.235783364289151

     ----------------------------------------------------------------


     total cpu time spent up to now is    11170.5 secs

     total energy              =  -11591.38157822 Ry
     estimated scf accuracy    <       0.00009153 Ry

     total magnetization       =     3.98 Bohr mag/cell
     absolute magnetization    =     4.21 Bohr mag/cell

     iteration # 54     ecut=    60.00 Ry     beta= 0.20
     CG style diagonalization

---- Real-time Memory Report at c_bands before calling an iterative solver
             0 MiB given to the printing process from OS
             0 MiB allocation reported by mallinfo(arena+hblkhd)
        170455 MiB available memory on the node where the printing process lives
------------------
     ethr =  1.04E-08,  avg # of iterations =  3.0

     negative rho (up, down):  4.865E+00 4.837E+00


     ----------------------------------------------------------------

     Non-local correlation energy =              9.235768146524521

     ----------------------------------------------------------------


     total cpu time spent up to now is    11348.4 secs

     total energy              =  -11591.38158439 Ry
     estimated scf accuracy    <       0.00009112 Ry

     total magnetization       =     3.99 Bohr mag/cell
     absolute magnetization    =     4.21 Bohr mag/cell

     iteration # 55     ecut=    60.00 Ry     beta= 0.20
     CG style diagonalization

---- Real-time Memory Report at c_bands before calling an iterative solver
             0 MiB given to the printing process from OS
             0 MiB allocation reported by mallinfo(arena+hblkhd)
        170462 MiB available memory on the node where the printing process lives
------------------
     ethr =  1.03E-08,  avg # of iterations =  3.0

     negative rho (up, down):  4.865E+00 4.837E+00


     ----------------------------------------------------------------

     Non-local correlation energy =              9.235734648192285

     ----------------------------------------------------------------


     total cpu time spent up to now is    11526.1 secs

     total energy              =  -11591.38159920 Ry
     estimated scf accuracy    <       0.00016479 Ry

     total magnetization       =     3.99 Bohr mag/cell
     absolute magnetization    =     4.22 Bohr mag/cell

     iteration # 56     ecut=    60.00 Ry     beta= 0.20
     CG style diagonalization

---- Real-time Memory Report at c_bands before calling an iterative solver
             0 MiB given to the printing process from OS
             0 MiB allocation reported by mallinfo(arena+hblkhd)
        170459 MiB available memory on the node where the printing process lives
------------------
     ethr =  1.03E-08,  avg # of iterations =  3.0

     negative rho (up, down):  4.865E+00 4.837E+00


     ----------------------------------------------------------------

     Non-local correlation energy =              9.235695139656690

     ----------------------------------------------------------------


     total cpu time spent up to now is    11703.8 secs

     total energy              =  -11591.38161722 Ry
     estimated scf accuracy    <       0.00004859 Ry

     total magnetization       =     3.99 Bohr mag/cell
     absolute magnetization    =     4.22 Bohr mag/cell

     iteration # 57     ecut=    60.00 Ry     beta= 0.20
     CG style diagonalization

---- Real-time Memory Report at c_bands before calling an iterative solver
             0 MiB given to the printing process from OS
             0 MiB allocation reported by mallinfo(arena+hblkhd)
        170463 MiB available memory on the node where the printing process lives
------------------
     ethr =  5.52E-09,  avg # of iterations =  3.0

     negative rho (up, down):  4.865E+00 4.837E+00


     ----------------------------------------------------------------

     Non-local correlation energy =              9.235687906543752

     ----------------------------------------------------------------


     total cpu time spent up to now is    11882.4 secs

     total energy              =  -11591.38161854 Ry
     estimated scf accuracy    <       0.00012302 Ry

     total magnetization       =     4.00 Bohr mag/cell
     absolute magnetization    =     4.23 Bohr mag/cell

     iteration # 58     ecut=    60.00 Ry     beta= 0.20
     CG style diagonalization

---- Real-time Memory Report at c_bands before calling an iterative solver
             0 MiB given to the printing process from OS
             0 MiB allocation reported by mallinfo(arena+hblkhd)
        170451 MiB available memory on the node where the printing process lives
------------------
     ethr =  5.52E-09,  avg # of iterations =  3.0

     negative rho (up, down):  4.865E+00 4.837E+00


     ----------------------------------------------------------------

     Non-local correlation energy =              9.235686728500564

     ----------------------------------------------------------------


     total cpu time spent up to now is    12060.3 secs

     total energy              =  -11591.38161921 Ry
     estimated scf accuracy    <       0.00010354 Ry

     total magnetization       =     4.00 Bohr mag/cell
     absolute magnetization    =     4.23 Bohr mag/cell

     iteration # 59     ecut=    60.00 Ry     beta= 0.20
     CG style diagonalization

---- Real-time Memory Report at c_bands before calling an iterative solver
             0 MiB given to the printing process from OS
             0 MiB allocation reported by mallinfo(arena+hblkhd)
        170461 MiB available memory on the node where the printing process lives
------------------
     ethr =  5.52E-09,  avg # of iterations =  3.0

     negative rho (up, down):  4.865E+00 4.837E+00


     ----------------------------------------------------------------

     Non-local correlation energy =              9.235652833221017

     ----------------------------------------------------------------


     total cpu time spent up to now is    12238.1 secs

     total energy              =  -11591.38163130 Ry
     estimated scf accuracy    <       0.00031101 Ry

     total magnetization       =     4.00 Bohr mag/cell
     absolute magnetization    =     4.23 Bohr mag/cell

     iteration # 60     ecut=    60.00 Ry     beta= 0.20
     CG style diagonalization

---- Real-time Memory Report at c_bands before calling an iterative solver
             0 MiB given to the printing process from OS
             0 MiB allocation reported by mallinfo(arena+hblkhd)
        170454 MiB available memory on the node where the printing process lives
------------------
     ethr =  5.52E-09,  avg # of iterations =  3.0

     negative rho (up, down):  4.865E+00 4.838E+00


     ----------------------------------------------------------------

     Non-local correlation energy =              9.235521497296208

     ----------------------------------------------------------------

 
     Magnetic moment per site  (integrated on atomic sphere of radius R)
     atom   1 (R=0.041)  charge=  9.6923  magn=  0.0348
     atom   2 (R=0.041)  charge=  9.6936  magn=  0.0346
     atom   3 (R=0.041)  charge=  9.6941  magn=  0.0372
     atom   4 (R=0.041)  charge=  9.6507  magn=  0.0210
     atom   5 (R=0.041)  charge=  9.6932  magn=  0.0341
     atom   6 (R=0.041)  charge=  9.6943  magn=  0.0339
     atom   7 (R=0.041)  charge=  9.6760  magn=  0.0264
     atom   8 (R=0.041)  charge=  9.6953  magn=  0.0361
     atom   9 (R=0.041)  charge=  9.7058  magn=  0.0530
     atom  10 (R=0.041)  charge=  9.6936  magn=  0.0406
     atom  11 (R=0.041)  charge=  9.6745  magn=  0.0490
     atom  12 (R=0.041)  charge=  9.6941  magn=  0.0364
     atom  13 (R=0.041)  charge=  9.6822  magn=  0.0184
     atom  14 (R=0.041)  charge=  9.6940  magn=  0.0403
     atom  15 (R=0.041)  charge=  9.6753  magn=  0.0484
     atom  16 (R=0.041)  charge=  9.6750  magn=  0.0586
     atom  17 (R=0.041)  charge=  9.7069  magn=  0.0521
     atom  18 (R=0.041)  charge=  9.6939  magn=  0.0359
     atom  19 (R=0.041)  charge=  9.6944  magn=  0.0425
     atom  20 (R=0.041)  charge=  9.7061  magn=  0.0617
     atom  21 (R=0.041)  charge=  9.6937  magn=  0.0423
     atom  22 (R=0.041)  charge=  9.7073  magn=  0.0530
     atom  23 (R=0.041)  charge=  9.6758  magn=  0.0493
     atom  24 (R=0.041)  charge=  9.6958  magn=  0.0399
     atom  25 (R=0.041)  charge=  9.6943  magn=  0.0365
     atom  26 (R=0.041)  charge=  9.6846  magn=  0.0181
     atom  27 (R=0.041)  charge=  9.6767  magn=  0.0487
     atom  28 (R=0.041)  charge=  9.6963  magn=  0.0401
     atom  29 (R=0.041)  charge=  9.6773  magn=  0.0575
     atom  30 (R=0.041)  charge=  9.7082  magn=  0.0525
     atom  31 (R=0.041)  charge=  9.6953  magn=  0.0357
     atom  32 (R=0.041)  charge=  9.6837  magn=  0.0218
     atom  33 (R=0.041)  charge=  9.6763  magn=  0.0574
     atom  34 (R=0.041)  charge=  9.6761  magn=  0.0573
     atom  35 (R=0.041)  charge=  9.6943  magn=  0.0425
     atom  36 (R=0.041)  charge=  9.6561  magn=  0.0775
     atom  37 (R=0.041)  charge=  9.6754  magn=  0.0569
     atom  38 (R=0.041)  charge=  9.6765  magn=  0.0563
     atom  39 (R=0.041)  charge=  9.6765  magn=  0.0655
     atom  40 (R=0.041)  charge=  9.6842  magn=  0.0210
     atom  41 (R=0.041)  charge=  9.6935  magn=  0.0418
     atom  42 (R=0.041)  charge=  9.7077  magn=  0.0583
[...]
     atom   12 type  1   force =     0.00803311   -0.00866760    0.02540311
     atom   13 type  1   force =     0.03023138   -0.00052539    0.00000000
     atom   14 type  1   force =     0.02547111   -0.00848345   -0.00868277
     atom   15 type  1   force =    -0.00411881    0.00098305    0.00534173
     atom   16 type  1   force =    -0.00446817    0.00413538    0.00000000
     atom   17 type  1   force =     0.01256708   -0.00004160   -0.01272261
     atom   18 type  1   force =     0.00803311   -0.00866755   -0.02540305
     atom   19 type  1   force =     0.00846385   -0.02557248    0.00855140
     atom   20 type  1   force =     0.01273394   -0.01281940   -0.00000001
     atom   21 type  1   force =     0.00846385   -0.02557246   -0.00855139
     atom   22 type  1   force =    -0.00004161    0.01256730    0.01272282
     atom   23 type  1   force =     0.00098304   -0.00411882   -0.00534172
     atom   24 type  1   force =    -0.00848349    0.02547116    0.00868277
     atom   25 type  1   force =    -0.00866759    0.00803310    0.02540308
     atom   26 type  1   force =    -0.00052538    0.03023138    0.00000000
     atom   27 type  1   force =     0.00098305   -0.00411882    0.00534172
     atom   28 type  1   force =    -0.00848345    0.02547111   -0.00868277
     atom   29 type  1   force =     0.00413538   -0.00446818   -0.00000000
     atom   30 type  1   force =    -0.00004159    0.01256709   -0.01272263
     atom   31 type  1   force =    -0.00866755    0.00803311   -0.02540307
     atom   32 type  1   force =     0.00022400    0.00022398    0.03016790
     atom   33 type  1   force =     0.00015058    0.00470618   -0.00448413
     atom   34 type  1   force =     0.00470619    0.00015057   -0.00448413
     atom   35 type  1   force =    -0.00841693   -0.00841694    0.02536349
     atom   36 type  1   force =     0.00054540    0.00054539   -0.00000001
     atom   37 type  1   force =     0.00015059    0.00470618    0.00448414
     atom   38 type  1   force =     0.00470619    0.00015058    0.00448413
     atom   39 type  1   force =     0.00265091    0.00265090    0.00000001
     atom   40 type  1   force =     0.00022401    0.00022400   -0.03016792
     atom   41 type  1   force =    -0.00841693   -0.00841694   -0.02536352
     atom   42 type  1   force =     0.00004628   -0.01255298    0.01259200
     atom   43 type  1   force =    -0.00828969   -0.02570556    0.00901696
     atom   44 type  1   force =    -0.00000292   -0.03049419    0.00000002
     atom   45 type  1   force =    -0.00828968   -0.02570557   -0.00901695
     atom   46 type  1   force =     0.00004630   -0.01255292   -0.01259197
     atom   47 type  1   force =    -0.02557246    0.00846384    0.00855140
     atom   48 type  1   force =    -0.01281939    0.01273393   -0.00000001
     atom   49 type  1   force =    -0.02557247    0.00846385   -0.00855139
     atom   50 type  1   force =    -0.01255293    0.00004628    0.01259195
     atom   51 type  1   force =    -0.02570554   -0.00828969    0.00901696
     atom   52 type  1   force =    -0.03049419   -0.00000294    0.00000001
     atom   53 type  1   force =    -0.02570557   -0.00828969   -0.00901695
     atom   54 type  1   force =    -0.01255295    0.00004629   -0.01259200
     atom   55 type  1   force =    -0.01327829   -0.01327829    0.00000001
     atom   56 type  2   force =     0.00000000    0.00000000    0.00000000
     The Hubbard contrib.    to forces
     atom    1 type  1   force =     0.00000000    0.00000000    0.00000000
     atom    2 type  1   force =     0.00000000    0.00000000    0.00000000
     atom    3 type  1   force =     0.00000000    0.00000000    0.00000000
     atom    4 type  1   force =     0.00000000    0.00000000    0.00000000
     atom    5 type  1   force =     0.00000000    0.00000000    0.00000000
     atom    6 type  1   force =     0.00000000    0.00000000    0.00000000
     atom    7 type  1   force =     0.00000000    0.00000000    0.00000000
     atom    8 type  1   force =     0.00000000    0.00000000    0.00000000
     atom    9 type  1   force =     0.00000000    0.00000000    0.00000000
     atom   10 type  1   force =     0.00000000    0.00000000    0.00000000
     atom   11 type  1   force =     0.00000000    0.00000000    0.00000000
     atom   12 type  1   force =     0.00000000    0.00000000    0.00000000
     atom   13 type  1   force =     0.00000000    0.00000000    0.00000000
     atom   14 type  1   force =     0.00000000    0.00000000    0.00000000
     atom   15 type  1   force =     0.00000000    0.00000000    0.00000000
     atom   16 type  1   force =     0.00000000    0.00000000    0.00000000
     atom   17 type  1   force =     0.00000000    0.00000000    0.00000000
     atom   18 type  1   force =     0.00000000    0.00000000    0.00000000
     atom   19 type  1   force =     0.00000000    0.00000000    0.00000000
     atom   20 type  1   force =     0.00000000    0.00000000    0.00000000
     atom   21 type  1   force =     0.00000000    0.00000000    0.00000000
     atom   22 type  1   force =     0.00000000    0.00000000    0.00000000
     atom   23 type  1   force =     0.00000000    0.00000000    0.00000000
     atom   24 type  1   force =     0.00000000    0.00000000    0.00000000
     atom   25 type  1   force =     0.00000000    0.00000000    0.00000000
     atom   26 type  1   force =     0.00000000    0.00000000    0.00000000
     atom   27 type  1   force =     0.00000000    0.00000000    0.00000000
     atom   28 type  1   force =     0.00000000    0.00000000    0.00000000
     atom   29 type  1   force =     0.00000000    0.00000000    0.00000000
     atom   30 type  1   force =     0.00000000    0.00000000    0.00000000
     atom   31 type  1   force =     0.00000000    0.00000000    0.00000000
     atom   32 type  1   force =     0.00000000    0.00000000    0.00000000
     atom   33 type  1   force =     0.00000000    0.00000000    0.00000000
     atom   34 type  1   force =     0.00000000    0.00000000    0.00000000
     atom   35 type  1   force =     0.00000000    0.00000000    0.00000000
     atom   36 type  1   force =     0.00000000    0.00000000    0.00000000
     atom   37 type  1   force =     0.00000000    0.00000000    0.00000000
     atom   38 type  1   force =     0.00000000    0.00000000    0.00000000
     atom   39 type  1   force =     0.00000000    0.00000000    0.00000000
     atom   40 type  1   force =     0.00000000    0.00000000    0.00000000
     atom   41 type  1   force =     0.00000000    0.00000000    0.00000000
     atom   42 type  1   force =     0.00000000    0.00000000    0.00000000
     atom   43 type  1   force =     0.00000000    0.00000000    0.00000000
     atom   44 type  1   force =     0.00000000    0.00000000    0.00000000
     atom   45 type  1   force =     0.00000000    0.00000000    0.00000000
     atom   46 type  1   force =     0.00000000    0.00000000    0.00000000
     atom   47 type  1   force =     0.00000000    0.00000000    0.00000000
     atom   48 type  1   force =     0.00000000    0.00000000    0.00000000
     atom   49 type  1   force =     0.00000000    0.00000000    0.00000000
     atom   50 type  1   force =     0.00000000    0.00000000    0.00000000
     atom   51 type  1   force =     0.00000000    0.00000000    0.00000000
     atom   52 type  1   force =     0.00000000    0.00000000    0.00000000
     atom   53 type  1   force =     0.00000000    0.00000000    0.00000000
     atom   54 type  1   force =     0.00000000    0.00000000    0.00000000
     atom   55 type  1   force =     0.00000000    0.00000000    0.00000000
     atom   56 type  2   force =     0.00000000    0.00000000    0.00000000
     The SCF correction term to forces
     atom    1 type  1   force =    -0.00000267    0.00002820   -0.00003454
     atom    2 type  1   force =     0.00003540   -0.00000479   -0.00003566
     atom    3 type  1   force =     0.00004203    0.00003354   -0.00004202
     atom    4 type  1   force =    -0.00002102   -0.00002376    0.00001872
     atom    5 type  1   force =     0.00001502    0.00003955    0.00006841
     atom    6 type  1   force =     0.00004044    0.00001412    0.00006563
     atom    7 type  1   force =     0.00005660    0.00005132    0.00003236
     atom    8 type  1   force =     0.00004245    0.00004429    0.00003240
     atom    9 type  1   force =     0.00002129    0.00003405   -0.00003095
     atom   10 type  1   force =     0.00002340    0.00003895   -0.00000210
     atom   11 type  1   force =     0.00004376    0.00005179   -0.00002519
     atom   12 type  1   force =     0.00000769   -0.00000676   -0.00000064
     atom   13 type  1   force =     0.00001416    0.00006204    0.00002695
     atom   14 type  1   force =     0.00003450    0.00002204    0.00003061
     atom   15 type  1   force =     0.00003679    0.00004253    0.00006787
     atom   16 type  1   force =     0.00000628    0.00002607    0.00002299
     atom   17 type  1   force =     0.00004070    0.00002745    0.00002549
     atom   18 type  1   force =     0.00000022   -0.00003077   -0.00000463
     atom   19 type  1   force =    -0.00001542   -0.00001302    0.00001429
     atom   20 type  1   force =     0.00001800   -0.00000037    0.00001247
     atom   21 type  1   force =    -0.00001835   -0.00002747    0.00000247
     atom   22 type  1   force =     0.00003871    0.00002195   -0.00002780
     atom   23 type  1   force =     0.00005956    0.00003631   -0.00002784
     atom   24 type  1   force =     0.00003738    0.00002665   -0.00000520
     atom   25 type  1   force =    -0.00000475    0.00000481    0.00000314
     atom   26 type  1   force =     0.00006400    0.00001440    0.00002075
     atom   27 type  1   force =     0.00004161    0.00003582    0.00006382
     atom   28 type  1   force =     0.00002166    0.00003290    0.00002461
     atom   29 type  1   force =     0.00002703    0.00000365    0.00001419
     atom   30 type  1   force =     0.00002605    0.00003939    0.00002431
     atom   31 type  1   force =    -0.00003169   -0.00000019   -0.00000483
     atom   32 type  1   force =     0.00000222   -0.00000703   -0.00000603
     atom   33 type  1   force =    -0.00002973   -0.00001873   -0.00000028
     atom   34 type  1   force =    -0.00001253   -0.00003743   -0.00000311
     atom   35 type  1   force =    -0.00002926   -0.00003696   -0.00000953
     atom   36 type  1   force =     0.00001571    0.00001137    0.00002272
     atom   37 type  1   force =    -0.00004755   -0.00003191    0.00002200
     atom   38 type  1   force =    -0.00003266   -0.00004653    0.00001802
     atom   39 type  1   force =    -0.00003870   -0.00004246    0.00000484
     atom   40 type  1   force =    -0.00002340   -0.00001996   -0.00000149
     atom   41 type  1   force =    -0.00004810   -0.00004500    0.00001221
     atom   42 type  1   force =    -0.00003236   -0.00001783   -0.00000115
     atom   43 type  1   force =    -0.00002883   -0.00000528   -0.00000287
     atom   44 type  1   force =    -0.00004909   -0.00001530    0.00000761
     atom   45 type  1   force =    -0.00003649   -0.00000721    0.00000922
     atom   46 type  1   force =    -0.00004458   -0.00003049    0.00000267
     atom   47 type  1   force =    -0.00001707   -0.00001501    0.00001085
     atom   48 type  1   force =    -0.00000288    0.00001924    0.00000641
     atom   49 type  1   force =    -0.00002669   -0.00001944   -0.00000336
     atom   50 type  1   force =    -0.00001895   -0.00003688    0.00000141
     atom   51 type  1   force =    -0.00000372   -0.00003493   -0.00000432
     atom   52 type  1   force =    -0.00001591   -0.00005085    0.00000112
     atom   53 type  1   force =    -0.00000701   -0.00003592    0.00000657
     atom   54 type  1   force =    -0.00002974   -0.00004310    0.00000217
     atom   55 type  1   force =     0.00000357    0.00000178   -0.00000000
     atom   56 type  2   force =    -0.00000311   -0.00000317    0.00000056

     Total force =     0.002813     Total SCF correction =     0.000375
     SCF correction compared to forces is large: reduce conv_thr to get better values
     Energy error            =      2.2E-05 Ry
     Gradient error          =      6.0E-04 Ry/Bohr

     bfgs converged in  16 scf cycles and  15 bfgs steps
     (criteria: energy <  1.0E-04 Ry, force <  1.0E-03 Ry/Bohr)

     End of BFGS Geometry Optimization

     Final energy             =  -11591.5363282138 Ry

     File ./out/calc.bfgs deleted, as requested
Begin final coordinates

ATOMIC_POSITIONS (angstrom)
Pt              -3.9576523109       -1.9315773065       -1.9072118736
Pt              -1.9315773065       -3.9576523109       -1.9072118736
Pt              -1.9174351319       -1.9174351319       -3.9167599508
Pt              -3.8561218393       -3.8561218393        0.0000000000
Pt              -3.9576523109       -1.9315773065        1.9072118736
Pt              -1.9315773065       -3.9576523109        1.9072118736
Pt              -1.9824811381       -1.9824811381        0.0000000000
Pt              -1.9174351319       -1.9174351319        3.9167599508
Pt              -3.7981004221       -0.0041998588       -3.8031838385
Pt              -3.9317376085        1.9085381135       -1.9049358231
Pt              -1.9361496690       -0.0156119870       -1.8970037323
Pt              -1.9092656910        1.8995619133       -3.9233680426
Pt              -4.1533110655       -0.0103906048        0.0000000000
Pt              -3.9317376085        1.9085381135        1.9049358231
Pt              -1.9361496690       -0.0156119870        1.8970037323
Pt              -1.9252969819        1.9300036533        0.0000000000
Pt              -3.7981004221       -0.0041998588        3.8031838385
Pt              -1.9092656910        1.8995619133        3.9233680426
Pt              -1.9069333659        3.9366526881       -1.9098180816
Pt              -3.8039204267        3.8118971372        0.0000000000
Pt              -1.9069333659        3.9366526881        1.9098180816
Pt              -0.0041998588       -3.7981004221       -3.8031838385
Pt              -0.0156119870       -1.9361496690       -1.8970037323
Pt               1.9085381135       -3.9317376085       -1.9049358231
Pt               1.8995619133       -1.9092656910       -3.9233680426
Pt              -0.0103906048       -4.1533110655        0.0000000000
Pt              -0.0156119870       -1.9361496690        1.8970037323
Pt               1.9085381135       -3.9317376085        1.9049358231
Pt               1.9300036533       -1.9252969819        0.0000000000
Pt              -0.0041998588       -3.7981004221        3.8031838385
Pt               1.8995619133       -1.9092656910        3.9233680426
Pt              -0.0073272249       -0.0073272249       -4.1174097874
Pt               0.0014130093        1.9275301129       -1.9202275567
Pt               1.9275301129        0.0014130093       -1.9202275567
Pt               1.9076485749        1.9076485749       -3.9314948955
Pt               0.0099452358        0.0099452358        0.0000000000
Pt               0.0014130093        1.9275301129        1.9202275567
Pt               1.9275301129        0.0014130093        1.9202275567
Pt               1.9448656271        1.9448656271        0.0000000000
Pt              -0.0073272249       -0.0073272249        4.1174097874
Pt               1.9076485749        1.9076485749        3.9314948955
Pt              -0.0007379736        3.8019306496       -3.8081395995
Pt               1.9182427978        3.9404275109       -1.9123307919
Pt               0.0075219868        4.1413329352        0.0000000000
Pt               1.9182427978        3.9404275109        1.9123307919
Pt              -0.0007379736        3.8019306496        3.8081395995
Pt               3.9366526881       -1.9069333659       -1.9098180816
Pt               3.8118971372       -3.8039204267        0.0000000000
Pt               3.9366526881       -1.9069333659        1.9098180816
Pt               3.8019306496       -0.0007379736       -3.8081395995
Pt               3.9404275109        1.9182427978       -1.9123307919
Pt               4.1413329352        0.0075219868        0.0000000000
Pt               3.9404275109        1.9182427978        1.9123307919
Pt               3.8019306496       -0.0007379736        3.8081395995
Pt               3.8198628679        3.8198628679        0.0000000000
H               -4.9771332275       -4.9771332275        0.0000000000
End final coordinates



     Writing all to output data dir ./out/calc.save/ :
     XML data file, charge density, pseudopotentials, collected wavefunctions
 
     init_run     :     15.56s CPU     16.76s WALL (       1 calls)
     electrons    : 144165.50s CPU 147063.93s WALL (      16 calls)
     update_pot   :     35.54s CPU     39.78s WALL (      15 calls)
     forces       :    112.76s CPU    121.36s WALL (      16 calls)

     Called by init_run:
     wfcinit      :      8.82s CPU      9.44s WALL (       1 calls)
     wfcinit:atom :      0.06s CPU      0.08s WALL (       2 calls)
     wfcinit:wfcr :      8.44s CPU      8.99s WALL (       2 calls)
     potinit      :      3.54s CPU      3.86s WALL (       1 calls)
     hinit0       :      0.84s CPU      0.92s WALL (       1 calls)

     Called by electrons:
     c_bands      : 138317.44s CPU 140687.54s WALL (     727 calls)
     sum_band     :   3516.19s CPU   3729.18s WALL (     727 calls)
     v_of_rho     :   1657.40s CPU   1858.01s WALL (     738 calls)
     v_h          :     22.81s CPU     24.92s WALL (     738 calls)
     v_xc         :   1669.79s CPU   1872.85s WALL (     754 calls)
     newd         :    598.78s CPU    685.38s WALL (     738 calls)
     mix_rho      :     69.99s CPU     75.03s WALL (     727 calls)

     Called by c_bands:
     init_us_2    :    152.18s CPU    153.95s WALL (    2942 calls)
     rcgdiagg     : 133350.49s CPU 135446.24s WALL (    1488 calls)
     wfcrot       :   4842.91s CPU   5098.36s WALL (    1448 calls)

     Called by sum_band:
     sum_band:wei :      1.27s CPU      1.28s WALL (     727 calls)
     sum_band:loo :   2601.95s CPU   2726.44s WALL (     727 calls)
     sum_band:buf :     29.34s CPU     29.74s WALL (    1454 calls)
     sum_band:ini :     77.19s CPU     78.01s WALL (    1454 calls)
     sum_band:cal :    433.55s CPU    437.26s WALL (    1454 calls)
     sum_band:bec :      3.41s CPU      3.45s WALL (    1454 calls)
     addusdens    :    875.04s CPU    960.25s WALL (     727 calls)
                                        0.00s GPU  (     727 calls)
     addusd:skk   :     22.94s CPU     41.78s WALL (    1454 calls)
                                        0.00s GPU  (    1454 calls)

     Called by *cgdiagg:
     h_psi        :  61064.04s CPU  62746.96s WALL ( 1767386 calls)
     s_psi        :  42442.87s CPU  42803.09s WALL ( 3533324 calls)

     Called by h_psi:
     h_psi:calbec :  23232.09s CPU  23412.85s WALL ( 1767386 calls)
     vloc_psi     :  16462.63s CPU  17790.49s WALL ( 1767386 calls)
     add_vuspsi   :  21291.68s CPU  21468.99s WALL ( 1767386 calls)
     hs_1psi      :  78604.22s CPU  80235.04s WALL ( 1765938 calls)
     s_1psi       :  42855.49s CPU  43211.74s WALL ( 1765938 calls)

     General routines
     calbec       :  45642.92s CPU  46012.50s WALL ( 3534906 calls)
     fft          :    870.89s CPU   1012.94s WALL (   51224 calls)
     ffts         :     11.11s CPU     12.77s WALL (    2203 calls)
     fftw         :  10042.40s CPU  11347.49s WALL ( 4684890 calls)
     interpolate  :     37.92s CPU     43.02s WALL (    1476 calls)
 
     Parallel routines
 
     PWSCF        :   1d16h 5m CPU   1d16h54m WALL

 
   This run was terminated on:  22: 2:56  18Jan2025            

=------------------------------------------------------------------------------=
   JOB DONE.
=------------------------------------------------------------------------------=
