
     Program PWSCF v.7.3.1 starts on 14May2025 at 16:28:34 

     This program is part of the open-source Quantum ESPRESSO suite
     for quantum simulation of materials; please cite
         "P. Giannozzi et al., J. Phys.:Condens. Matter 21 395502 (2009);
         "P. Giannozzi et al., J. Phys.:Condens. Matter 29 465901 (2017);
         "P. Giannozzi et al., J. Chem. Phys. 152 154105 (2020);
          URL http://www.quantum-espresso.org", 
     in publications or presentations arising from this work. More details at
     http://www.quantum-espresso.org/quote

     Parallel version (MPI), running on    36 processors

     MPI processes distributed on     1 nodes
     140677 MiB available memory on the printing compute node when the environment starts
 
     Reading input from espresso.pwi
Warning: card   &CELL ignored
Warning: card      CELL_DOFREE = 'IBRAV' ignored
Warning: card / ignored

     Current dimensions of program PWSCF are:
     Max number of different atomic species (ntypx) = 10
     Max number of k-points (npk) =  40000
     Max angular momentum in pseudopotentials (lmaxx) =  4
     Message from routine iosys:
     restart disabled: needed files not found

     IMPORTANT: XC functional enforced from input :
     Exchange-correlation= RVV10
                           (   1   4  13   4  26   0   0)
     Any further DFT definition will be discarded
     Please, verify this is what you really want


     Atomic positions and unit cell read from directory:
     ./out/calc.save/
     Message from routine qexsd_readschema :
     xml data file ./out/calc.save/data-file-schema.xml not found
     Nothing found: using input atomic positions and unit cell


     gamma-point specific algorithms are used
     Message from routine setup:
     using ibrav=0 with symmetry is DISCOURAGED, use correct ibrav instead
 
     R & G space division:  proc/nbgrp/npool/nimage =      36
     Subspace diagonalization in iterative solution of the eigenvalue problem:
     one sub-group per band group will be used
     scalapack distributed-memory algorithm (size of sub-group:  6*  6 procs)

 
     Parallelization info
     --------------------
     sticks:   dense  smooth     PW     G-vecs:    dense   smooth      PW
     Min        2366    1183    295               520102   183878   22972
     Max        2368    1188    298               520116   183884   22980
     Sum       85225   42641  10669             18723953  6619737  827137
 
     Using Slab Decomposition
 

     Title: 
     calc                                                                       


     bravais-lattice index     =            0
     lattice parameter (alat)  =      47.2432  a.u.
     unit-cell volume          =  105442.7265 (a.u.)^3
     number of atoms/cell      =          117
     number of atomic types    =            2
     number of electrons       =      1857.00
     number of Kohn-Sham states=         1115
     kinetic-energy cutoff     =      60.0000  Ry
     charge density cutoff     =     480.0000  Ry
     scf convergence threshold =      1.0E-06
     mixing beta               =       0.1000
     number of iterations used =            8  local-TF  mixing
     energy convergence thresh.=      1.0E-04
     force convergence thresh. =      1.0E-03
     Exchange-correlation= RVV10
                           (   1   4  13   4  26   0   0)
     nstep                     =        10000


     celldm(1)=  47.243153  celldm(2)=   0.000000  celldm(3)=   0.000000
     celldm(4)=   0.000000  celldm(5)=   0.000000  celldm(6)=   0.000000

     crystal axes: (cart. coord. in units of alat)
               a(1) = (   1.000000   0.000000   0.000000 )  
               a(2) = (   0.000000   1.000000   0.000000 )  
               a(3) = (   0.000000   0.000000   1.000000 )  

     reciprocal axes: (cart. coord. in units 2 pi/alat)
               b(1) = (  1.000000  0.000000  0.000000 )  
               b(2) = (  0.000000  1.000000  0.000000 )  
               b(3) = (  0.000000  0.000000  1.000000 )  


     PseudoPot. # 1 for Pt read from file:
     /home/james/work/espresso/SSSP_1.3.0_PBE_efficiency/pt_pbe_v1.4.uspp.F.UPF
     MD5 check sum: f09d6de1a584b5a045c4fc126da2d0c4
     Pseudo is Ultrasoft + core correction, Zval = 16.0
     Generated by new atomic code, or converted to UPF format
     Using radial grid of  985 points,  6 beta functions with: 
                l(1) =   0
                l(2) =   0
                l(3) =   1
                l(4) =   1
                l(5) =   2
                l(6) =   2
     Q(r) pseudized with  8 coefficients,  rinner =    1.300   1.300   1.300
                                                       1.300   1.300

     PseudoPot. # 2 for H  read from file:
     /home/james/work/espresso/SSSP_1.3.0_PBE_efficiency/H.pbe-rrkjus_psl.1.0.0.UPF
     MD5 check sum: f52b6d4d1c606e5624b1dc7b2218f220
     Pseudo is Ultrasoft, Zval =  1.0
     Generated using "atomic" code by A. Dal Corso  v.5.1
     Using radial grid of  929 points,  2 beta functions with: 
                l(1) =   0
                l(2) =   0
     Q(r) pseudized with 0 coefficients 


     atomic species   valence    mass     pseudopotential
     Pt               16.00   195.08400     Pt( 1.00)
     H                 1.00     1.00800     H ( 1.00)

     Starting magnetic structure 
     atomic species   magnetization
     Pt              0.010
     H               0.020

      2 Sym. Ops. (no inversion) found


                                    s                        frac. trans.

      isym =  1     identity                                     

 cryst.   s( 1) = (     1          0          0      )
                  (     0          1          0      )
                  (     0          0          1      )

 cart.    s( 1) = (  1.0000000  0.0000000  0.0000000 )
                  (  0.0000000  1.0000000  0.0000000 )
                  (  0.0000000  0.0000000  1.0000000 )


      isym =  2     inv. 180 deg rotation - cart. axis [0,0,1]   

 cryst.   s( 2) = (     1          0          0      )
                  (     0          1          0      )
                  (     0          0         -1      )

 cart.    s( 2) = (  1.0000000  0.0000000  0.0000000 )
                  (  0.0000000  1.0000000  0.0000000 )
                  (  0.0000000  0.0000000 -1.0000000 )


   Cartesian axes

     site n.     atom                  positions (alat units)
         1        Pt     tau(   1) = (  -0.2317675  -0.1538076   0.0000000  )
         2        Pt     tau(   2) = (  -0.1538076  -0.2317675   0.0000000  )
         3        Pt     tau(   3) = (  -0.1617552  -0.1617552  -0.0847262  )
         4        Pt     tau(   4) = (  -0.1617552  -0.1617552   0.0847262  )
         5        Pt     tau(   5) = (  -0.2317675   0.0000000  -0.1538076  )
         6        Pt     tau(   6) = (  -0.1617552  -0.0847262  -0.1617552  )
         7        Pt     tau(   7) = (  -0.1538076   0.0000000  -0.2317675  )
         8        Pt     tau(   8) = (  -0.2338884  -0.0780549  -0.0780549  )
         9        Pt     tau(   9) = (  -0.2370085   0.0000000   0.0000000  )
        10        Pt     tau(  10) = (  -0.1554443  -0.0788784   0.0000000  )
        11        Pt     tau(  11) = (  -0.1554443   0.0000000  -0.0788784  )
        12        Pt     tau(  12) = (  -0.2338884  -0.0780549   0.0780549  )
        13        Pt     tau(  13) = (  -0.2317675   0.0000000   0.1538076  )
        14        Pt     tau(  14) = (  -0.1617552  -0.0847262   0.1617552  )
        15        Pt     tau(  15) = (  -0.1554443   0.0000000   0.0788784  )
        16        Pt     tau(  16) = (  -0.1538076   0.0000000   0.2317675  )
        17        Pt     tau(  17) = (  -0.1617552   0.0847262  -0.1617552  )
        18        Pt     tau(  18) = (  -0.2338884   0.0780549  -0.0780549  )
        19        Pt     tau(  19) = (  -0.2317675   0.1538076   0.0000000  )
        20        Pt     tau(  20) = (  -0.1554443   0.0788784   0.0000000  )
        21        Pt     tau(  21) = (  -0.1617552   0.1617552  -0.0847262  )
        22        Pt     tau(  22) = (  -0.2338884   0.0780549   0.0780549  )
        23        Pt     tau(  23) = (  -0.1617552   0.0847262   0.1617552  )
        24        Pt     tau(  24) = (  -0.1617552   0.1617552   0.0847262  )
        25        Pt     tau(  25) = (  -0.1538076   0.2317675   0.0000000  )
        26        Pt     tau(  26) = (  -0.0847262  -0.1617552  -0.1617552  )
        27        Pt     tau(  27) = (   0.0000000  -0.2317675  -0.1538076  )
        28        Pt     tau(  28) = (   0.0000000  -0.1538076  -0.2317675  )
        29        Pt     tau(  29) = (  -0.0780549  -0.2338884  -0.0780549  )
        30        Pt     tau(  30) = (  -0.0788784  -0.1554443   0.0000000  )
        31        Pt     tau(  31) = (   0.0000000  -0.2370085   0.0000000  )
        32        Pt     tau(  32) = (   0.0000000  -0.1554443  -0.0788784  )
        33        Pt     tau(  33) = (  -0.0780549  -0.2338884   0.0780549  )
        34        Pt     tau(  34) = (  -0.0847262  -0.1617552   0.1617552  )
        35        Pt     tau(  35) = (   0.0000000  -0.2317675   0.1538076  )
        36        Pt     tau(  36) = (   0.0000000  -0.1554443   0.0788784  )
        37        Pt     tau(  37) = (   0.0000000  -0.1538076   0.2317675  )
        38        Pt     tau(  38) = (  -0.0780549  -0.0780549  -0.2338884  )
        39        Pt     tau(  39) = (  -0.0788784   0.0000000  -0.1554443  )
        40        Pt     tau(  40) = (   0.0000000  -0.0788784  -0.1554443  )
        41        Pt     tau(  41) = (   0.0000000   0.0000000  -0.2370085  )
        42        Pt     tau(  42) = (  -0.0808740  -0.0808740  -0.0808740  )
        43        Pt     tau(  43) = (  -0.0786873   0.0000000   0.0000000  )
        44        Pt     tau(  44) = (   0.0000000  -0.0786873   0.0000000  )
        45        Pt     tau(  45) = (   0.0000000   0.0000000  -0.0786873  )
        46        Pt     tau(  46) = (  -0.0808740  -0.0808740   0.0808740  )
        47        Pt     tau(  47) = (  -0.0788784   0.0000000   0.1554443  )
        48        Pt     tau(  48) = (   0.0000000  -0.0788784   0.1554443  )
        49        Pt     tau(  49) = (   0.0000000   0.0000000   0.0786873  )
        50        Pt     tau(  50) = (  -0.0780549  -0.0780549   0.2338884  )
        51        Pt     tau(  51) = (   0.0000000   0.0000000   0.2370085  )
        52        Pt     tau(  52) = (  -0.0780549   0.0780549  -0.2338884  )
        53        Pt     tau(  53) = (  -0.0847262   0.1617552  -0.1617552  )
        54        Pt     tau(  54) = (   0.0000000   0.0788784  -0.1554443  )
        55        Pt     tau(  55) = (   0.0000000   0.1538076  -0.2317675  )
        56        Pt     tau(  56) = (  -0.0808740   0.0808740  -0.0808740  )
        57        Pt     tau(  57) = (  -0.0788784   0.1554443   0.0000000  )
        58        Pt     tau(  58) = (   0.0000000   0.0786873   0.0000000  )
        59        Pt     tau(  59) = (   0.0000000   0.1554443  -0.0788784  )
        60        Pt     tau(  60) = (  -0.0808740   0.0808740   0.0808740  )
        61        Pt     tau(  61) = (  -0.0847262   0.1617552   0.1617552  )
        62        Pt     tau(  62) = (   0.0000000   0.0788784   0.1554443  )
        63        Pt     tau(  63) = (   0.0000000   0.1554443   0.0788784  )
        64        Pt     tau(  64) = (  -0.0780549   0.0780549   0.2338884  )
        65        Pt     tau(  65) = (   0.0000000   0.1538076   0.2317675  )
        66        Pt     tau(  66) = (   0.0000000   0.2317675  -0.1538076  )
        67        Pt     tau(  67) = (  -0.0780549   0.2338884  -0.0780549  )
        68        Pt     tau(  68) = (   0.0000000   0.2370085   0.0000000  )
        69        Pt     tau(  69) = (  -0.0780549   0.2338884   0.0780549  )
        70        Pt     tau(  70) = (   0.0000000   0.2317675   0.1538076  )
        71        Pt     tau(  71) = (   0.0847262  -0.1617552  -0.1617552  )
        72        Pt     tau(  72) = (   0.0780549  -0.2338884  -0.0780549  )
        73        Pt     tau(  73) = (   0.0788784  -0.1554443   0.0000000  )
        74        Pt     tau(  74) = (   0.1538076  -0.2317675   0.0000000  )
        75        Pt     tau(  75) = (   0.1617552  -0.1617552  -0.0847262  )
        76        Pt     tau(  76) = (   0.0780549  -0.2338884   0.0780549  )
        77        Pt     tau(  77) = (   0.0847262  -0.1617552   0.1617552  )
        78        Pt     tau(  78) = (   0.1617552  -0.1617552   0.0847262  )
        79        Pt     tau(  79) = (   0.0780549  -0.0780549  -0.2338884  )
        80        Pt     tau(  80) = (   0.0788784   0.0000000  -0.1554443  )
        81        Pt     tau(  81) = (   0.1617552  -0.0847262  -0.1617552  )
        82        Pt     tau(  82) = (   0.1538076   0.0000000  -0.2317675  )
        83        Pt     tau(  83) = (   0.0808740  -0.0808740  -0.0808740  )
        84        Pt     tau(  84) = (   0.0786873   0.0000000   0.0000000  )
        85        Pt     tau(  85) = (   0.1554443  -0.0788784   0.0000000  )
        86        Pt     tau(  86) = (   0.1554443   0.0000000  -0.0788784  )
        87        Pt     tau(  87) = (   0.0808740  -0.0808740   0.0808740  )
        88        Pt     tau(  88) = (   0.0788784   0.0000000   0.1554443  )
        89        Pt     tau(  89) = (   0.1617552  -0.0847262   0.1617552  )
        90        Pt     tau(  90) = (   0.1554443   0.0000000   0.0788784  )
        91        Pt     tau(  91) = (   0.0780549  -0.0780549   0.2338884  )
        92        Pt     tau(  92) = (   0.1538076   0.0000000   0.2317675  )
        93        Pt     tau(  93) = (   0.0780549   0.0780549  -0.2338884  )
        94        Pt     tau(  94) = (   0.0847262   0.1617552  -0.1617552  )
        95        Pt     tau(  95) = (   0.1617552   0.0847262  -0.1617552  )
        96        Pt     tau(  96) = (   0.0808740   0.0808740  -0.0808740  )
        97        Pt     tau(  97) = (   0.0788784   0.1554443   0.0000000  )
        98        Pt     tau(  98) = (   0.1554443   0.0788784   0.0000000  )
        99        Pt     tau(  99) = (   0.1617552   0.1617552  -0.0847262  )
       100        Pt     tau( 100) = (   0.0808740   0.0808740   0.0808740  )
       101        Pt     tau( 101) = (   0.0847262   0.1617552   0.1617552  )
       102        Pt     tau( 102) = (   0.1617552   0.0847262   0.1617552  )
       103        Pt     tau( 103) = (   0.1617552   0.1617552   0.0847262  )
       104        Pt     tau( 104) = (   0.0780549   0.0780549   0.2338884  )
       105        Pt     tau( 105) = (   0.0780549   0.2338884  -0.0780549  )
       106        Pt     tau( 106) = (   0.1538076   0.2317675   0.0000000  )
       107        Pt     tau( 107) = (   0.0780549   0.2338884   0.0780549  )
       108        Pt     tau( 108) = (   0.2317675  -0.1538076   0.0000000  )
       109        Pt     tau( 109) = (   0.2317675   0.0000000  -0.1538076  )
       110        Pt     tau( 110) = (   0.2338884  -0.0780549  -0.0780549  )
       111        Pt     tau( 111) = (   0.2370085   0.0000000   0.0000000  )
       112        Pt     tau( 112) = (   0.2338884  -0.0780549   0.0780549  )
       113        Pt     tau( 113) = (   0.2317675   0.0000000   0.1538076  )
       114        Pt     tau( 114) = (   0.2338884   0.0780549  -0.0780549  )
       115        Pt     tau( 115) = (   0.2317675   0.1538076   0.0000000  )
       116        Pt     tau( 116) = (   0.2338884   0.0780549   0.0780549  )
       117        H      tau( 117) = (  -0.2918710  -0.1934508   0.0000000  )

   Crystallographic axes

     site n.     atom                  positions (cryst. coord.)
         1        Pt     tau(   1) = ( -0.2317675 -0.1538076  0.0000000  )
         2        Pt     tau(   2) = ( -0.1538076 -0.2317675  0.0000000  )
         3        Pt     tau(   3) = ( -0.1617552 -0.1617552 -0.0847262  )
         4        Pt     tau(   4) = ( -0.1617552 -0.1617552  0.0847262  )
         5        Pt     tau(   5) = ( -0.2317675  0.0000000 -0.1538076  )
         6        Pt     tau(   6) = ( -0.1617552 -0.0847262 -0.1617552  )
         7        Pt     tau(   7) = ( -0.1538076  0.0000000 -0.2317675  )
         8        Pt     tau(   8) = ( -0.2338884 -0.0780549 -0.0780549  )
         9        Pt     tau(   9) = ( -0.2370085  0.0000000  0.0000000  )
        10        Pt     tau(  10) = ( -0.1554443 -0.0788784  0.0000000  )
        11        Pt     tau(  11) = ( -0.1554443  0.0000000 -0.0788784  )
        12        Pt     tau(  12) = ( -0.2338884 -0.0780549  0.0780549  )
        13        Pt     tau(  13) = ( -0.2317675  0.0000000  0.1538076  )
        14        Pt     tau(  14) = ( -0.1617552 -0.0847262  0.1617552  )
        15        Pt     tau(  15) = ( -0.1554443  0.0000000  0.0788784  )
        16        Pt     tau(  16) = ( -0.1538076  0.0000000  0.2317675  )
        17        Pt     tau(  17) = ( -0.1617552  0.0847262 -0.1617552  )
        18        Pt     tau(  18) = ( -0.2338884  0.0780549 -0.0780549  )
        19        Pt     tau(  19) = ( -0.2317675  0.1538076  0.0000000  )
        20        Pt     tau(  20) = ( -0.1554443  0.0788784  0.0000000  )
        21        Pt     tau(  21) = ( -0.1617552  0.1617552 -0.0847262  )
        22        Pt     tau(  22) = ( -0.2338884  0.0780549  0.0780549  )
        23        Pt     tau(  23) = ( -0.1617552  0.0847262  0.1617552  )
        24        Pt     tau(  24) = ( -0.1617552  0.1617552  0.0847262  )
        25        Pt     tau(  25) = ( -0.1538076  0.2317675  0.0000000  )
        26        Pt     tau(  26) = ( -0.0847262 -0.1617552 -0.1617552  )
        27        Pt     tau(  27) = (  0.0000000 -0.2317675 -0.1538076  )
        28        Pt     tau(  28) = (  0.0000000 -0.1538076 -0.2317675  )
        29        Pt     tau(  29) = ( -0.0780549 -0.2338884 -0.0780549  )
        30        Pt     tau(  30) = ( -0.0788784 -0.1554443  0.0000000  )
        31        Pt     tau(  31) = (  0.0000000 -0.2370085  0.0000000  )
        32        Pt     tau(  32) = (  0.0000000 -0.1554443 -0.0788784  )
        33        Pt     tau(  33) = ( -0.0780549 -0.2338884  0.0780549  )
        34        Pt     tau(  34) = ( -0.0847262 -0.1617552  0.1617552  )
        35        Pt     tau(  35) = (  0.0000000 -0.2317675  0.1538076  )
        36        Pt     tau(  36) = (  0.0000000 -0.1554443  0.0788784  )
        37        Pt     tau(  37) = (  0.0000000 -0.1538076  0.2317675  )
        38        Pt     tau(  38) = ( -0.0780549 -0.0780549 -0.2338884  )
        39        Pt     tau(  39) = ( -0.0788784  0.0000000 -0.1554443  )
        40        Pt     tau(  40) = (  0.0000000 -0.0788784 -0.1554443  )
        41        Pt     tau(  41) = (  0.0000000  0.0000000 -0.2370085  )
        42        Pt     tau(  42) = ( -0.0808740 -0.0808740 -0.0808740  )
        43        Pt     tau(  43) = ( -0.0786873  0.0000000  0.0000000  )
        44        Pt     tau(  44) = (  0.0000000 -0.0786873  0.0000000  )
        45        Pt     tau(  45) = (  0.0000000  0.0000000 -0.0786873  )
        46        Pt     tau(  46) = ( -0.0808740 -0.0808740  0.0808740  )
        47        Pt     tau(  47) = ( -0.0788784  0.0000000  0.1554443  )
        48        Pt     tau(  48) = (  0.0000000 -0.0788784  0.1554443  )
        49        Pt     tau(  49) = (  0.0000000  0.0000000  0.0786873  )
        50        Pt     tau(  50) = ( -0.0780549 -0.0780549  0.2338884  )
        51        Pt     tau(  51) = (  0.0000000  0.0000000  0.2370085  )
        52        Pt     tau(  52) = ( -0.0780549  0.0780549 -0.2338884  )
        53        Pt     tau(  53) = ( -0.0847262  0.1617552 -0.1617552  )
        54        Pt     tau(  54) = (  0.0000000  0.0788784 -0.1554443  )
        55        Pt     tau(  55) = (  0.0000000  0.1538076 -0.2317675  )
        56        Pt     tau(  56) = ( -0.0808740  0.0808740 -0.0808740  )
        57        Pt     tau(  57) = ( -0.0788784  0.1554443  0.0000000  )
        58        Pt     tau(  58) = (  0.0000000  0.0786873  0.0000000  )
        59        Pt     tau(  59) = (  0.0000000  0.1554443 -0.0788784  )
        60        Pt     tau(  60) = ( -0.0808740  0.0808740  0.0808740  )
        61        Pt     tau(  61) = ( -0.0847262  0.1617552  0.1617552  )
        62        Pt     tau(  62) = (  0.0000000  0.0788784  0.1554443  )
        63        Pt     tau(  63) = (  0.0000000  0.1554443  0.0788784  )
        64        Pt     tau(  64) = ( -0.0780549  0.0780549  0.2338884  )
        65        Pt     tau(  65) = (  0.0000000  0.1538076  0.2317675  )
        66        Pt     tau(  66) = (  0.0000000  0.2317675 -0.1538076  )
        67        Pt     tau(  67) = ( -0.0780549  0.2338884 -0.0780549  )
        68        Pt     tau(  68) = (  0.0000000  0.2370085  0.0000000  )
        69        Pt     tau(  69) = ( -0.0780549  0.2338884  0.0780549  )
        70        Pt     tau(  70) = (  0.0000000  0.2317675  0.1538076  )
        71        Pt     tau(  71) = (  0.0847262 -0.1617552 -0.1617552  )
        72        Pt     tau(  72) = (  0.0780549 -0.2338884 -0.0780549  )
        73        Pt     tau(  73) = (  0.0788784 -0.1554443  0.0000000  )
        74        Pt     tau(  74) = (  0.1538076 -0.2317675  0.0000000  )
        75        Pt     tau(  75) = (  0.1617552 -0.1617552 -0.0847262  )
        76        Pt     tau(  76) = (  0.0780549 -0.2338884  0.0780549  )
        77        Pt     tau(  77) = (  0.0847262 -0.1617552  0.1617552  )
        78        Pt     tau(  78) = (  0.1617552 -0.1617552  0.0847262  )
        79        Pt     tau(  79) = (  0.0780549 -0.0780549 -0.2338884  )
        80        Pt     tau(  80) = (  0.0788784  0.0000000 -0.1554443  )
        81        Pt     tau(  81) = (  0.1617552 -0.0847262 -0.1617552  )
        82        Pt     tau(  82) = (  0.1538076  0.0000000 -0.2317675  )
        83        Pt     tau(  83) = (  0.0808740 -0.0808740 -0.0808740  )
        84        Pt     tau(  84) = (  0.0786873  0.0000000  0.0000000  )
        85        Pt     tau(  85) = (  0.1554443 -0.0788784  0.0000000  )
        86        Pt     tau(  86) = (  0.1554443  0.0000000 -0.0788784  )
        87        Pt     tau(  87) = (  0.0808740 -0.0808740  0.0808740  )
        88        Pt     tau(  88) = (  0.0788784  0.0000000  0.1554443  )
        89        Pt     tau(  89) = (  0.1617552 -0.0847262  0.1617552  )
        90        Pt     tau(  90) = (  0.1554443  0.0000000  0.0788784  )
        91        Pt     tau(  91) = (  0.0780549 -0.0780549  0.2338884  )
        92        Pt     tau(  92) = (  0.1538076  0.0000000  0.2317675  )
        93        Pt     tau(  93) = (  0.0780549  0.0780549 -0.2338884  )
        94        Pt     tau(  94) = (  0.0847262  0.1617552 -0.1617552  )
        95        Pt     tau(  95) = (  0.1617552  0.0847262 -0.1617552  )
        96        Pt     tau(  96) = (  0.0808740  0.0808740 -0.0808740  )
        97        Pt     tau(  97) = (  0.0788784  0.1554443  0.0000000  )
        98        Pt     tau(  98) = (  0.1554443  0.0788784  0.0000000  )
        99        Pt     tau(  99) = (  0.1617552  0.1617552 -0.0847262  )
       100        Pt     tau( 100) = (  0.0808740  0.0808740  0.0808740  )
       101        Pt     tau( 101) = (  0.0847262  0.1617552  0.1617552  )
       102        Pt     tau( 102) = (  0.1617552  0.0847262  0.1617552  )
       103        Pt     tau( 103) = (  0.1617552  0.1617552  0.0847262  )
       104        Pt     tau( 104) = (  0.0780549  0.0780549  0.2338884  )
       105        Pt     tau( 105) = (  0.0780549  0.2338884 -0.0780549  )
       106        Pt     tau( 106) = (  0.1538076  0.2317675  0.0000000  )
       107        Pt     tau( 107) = (  0.0780549  0.2338884  0.0780549  )
       108        Pt     tau( 108) = (  0.2317675 -0.1538076  0.0000000  )
       109        Pt     tau( 109) = (  0.2317675  0.0000000 -0.1538076  )
       110        Pt     tau( 110) = (  0.2338884 -0.0780549 -0.0780549  )
       111        Pt     tau( 111) = (  0.2370085  0.0000000  0.0000000  )
       112        Pt     tau( 112) = (  0.2338884 -0.0780549  0.0780549  )
       113        Pt     tau( 113) = (  0.2317675  0.0000000  0.1538076  )
       114        Pt     tau( 114) = (  0.2338884  0.0780549 -0.0780549  )
       115        Pt     tau( 115) = (  0.2317675  0.1538076  0.0000000  )
       116        Pt     tau( 116) = (  0.2338884  0.0780549  0.0780549  )
       117        H      tau( 117) = ( -0.2918710 -0.1934508  0.0000000  )

     number of k points=     1  Gaussian smearing, width (Ry)=  0.0100
                       cart. coord. in units 2pi/alat
        k(    1) = (   0.0000000   0.0000000   0.0000000), wk =   1.0000000

                       cryst. coord.
        k(    1) = (   0.0000000   0.0000000   0.0000000), wk =   1.0000000

     Dense  grid:  9361977 G-vectors     FFT dimensions: ( 360, 360, 360)

     Smooth grid:  3309869 G-vectors     FFT dimensions: ( 240, 240, 240)

     Dynamical RAM for                 wfc:     195.54 MB

     Dynamical RAM for     wfc (w. buffer):     586.61 MB

     Dynamical RAM for           str. fact:       7.94 MB

     Dynamical RAM for           local pot:       0.00 MB

     Dynamical RAM for          nlocal pot:     366.52 MB

     Dynamical RAM for                qrad:       3.52 MB

     Dynamical RAM for          rho,v,vnew:      83.14 MB

     Dynamical RAM for               rhoin:      27.71 MB

     Dynamical RAM for            rho*nmix:     126.98 MB

     Dynamical RAM for           G-vectors:      15.58 MB

     Dynamical RAM for          h,s,v(r/c):       0.78 MB

     Dynamical RAM for          <psi|beta>:      17.78 MB

     Dynamical RAM for      wfcinit/wfcrot:     419.54 MB

     Dynamical RAM for           addusdens:    1202.36 MB

     Dynamical RAM for          addusforce:    2115.94 MB

     Estimated static dynamical RAM per process >       1.14 GB

     Estimated max dynamical RAM per process >       3.33 GB

     Estimated total dynamical RAM >     119.71 GB
     Generating pointlists ...
     new r_m :   0.0297 (alat units)  1.4031 (a.u.) for type    1
     new r_m :   0.0297 (alat units)  1.4031 (a.u.) for type    2
     Cannot read rho : file not found

     Initial potential from superposition of free atoms

     starting charge    1798.9987, renormalised to    1857.0000

     negative rho (up, down):  1.111E+01 1.089E+01


---------------------------------------------------------------------------------
Carrying out rVV10 run using the following parameters:
Nqs =      20    Nr_points =    1024   r_max =   100.000
b_value =  6.30000    beta =  0.00901
     q_mesh =  0.00010000  0.00030000  0.00058939  0.00100810
               0.00161396  0.00249058  0.00375900  0.00559430
               0.00824984  0.01209221  0.01765183  0.02569619
               0.03733578  0.05417739  0.07854596  0.11380545
               0.16482331  0.23864234  0.34545298  0.50000000

Gradients computed in Reciprocal space

---------------------------------------------------------------------------------




     ----------------------------------------------------------------

     Non-local correlation energy =             19.955071038541330

     ----------------------------------------------------------------

     Message from routine qexsd_readschema :
     xml data file ./out/calc.save/data-file-schema.xml not found
     Cannot read wfcs: file not found
     Starting wfcs are 1393 randomized atomic wfcs

     total cpu time spent up to now is      101.6 secs

     Self-consistent Calculation

     iteration #  1     ecut=    60.00 Ry     beta= 0.10
     CG style diagonalization

---- Real-time Memory Report at c_bands before calling an iterative solver
             0 MiB given to the printing process from OS
             0 MiB allocation reported by mallinfo(arena+hblkhd)
         95135 MiB available memory on the node where the printing process lives
------------------
     c_bands:  3 eigenvalues not converged
     c_bands:  5 eigenvalues not converged
     ethr =  1.00E-05,  avg # of iterations = 29.3

     negative rho (up, down):  1.128E+01 1.108E+01


     ----------------------------------------------------------------

     Non-local correlation energy =             19.811687482879620

     ----------------------------------------------------------------


     total cpu time spent up to now is    23378.0 secs

     total energy              =  -24488.01456233 Ry
     estimated scf accuracy    <     660.42420320 Ry

     total magnetization       =     7.94 Bohr mag/cell
     absolute magnetization    =     8.33 Bohr mag/cell

     iteration #  2     ecut=    60.00 Ry     beta= 0.10
     CG style diagonalization

---- Real-time Memory Report at c_bands before calling an iterative solver
             0 MiB given to the printing process from OS
             0 MiB allocation reported by mallinfo(arena+hblkhd)
         92333 MiB available memory on the node where the printing process lives
------------------
     ethr =  1.00E-02,  avg # of iterations =  3.0

     negative rho (up, down):  1.263E+01 1.255E+01


     ----------------------------------------------------------------

     Non-local correlation energy =             18.951589373359088

     ----------------------------------------------------------------


     total cpu time spent up to now is    25285.2 secs

     total energy              =  -24417.28008917 Ry
     estimated scf accuracy    <     503.46683547 Ry

     total magnetization       =     8.45 Bohr mag/cell
     absolute magnetization    =     8.84 Bohr mag/cell

     iteration #  3     ecut=    60.00 Ry     beta= 0.10
     CG style diagonalization

---- Real-time Memory Report at c_bands before calling an iterative solver
             0 MiB given to the printing process from OS
             0 MiB allocation reported by mallinfo(arena+hblkhd)
         92026 MiB available memory on the node where the printing process lives
------------------
     ethr =  1.00E-02,  avg # of iterations =  3.2

     negative rho (up, down):  1.231E+01 1.224E+01


     ----------------------------------------------------------------

     Non-local correlation energy =             18.894444205760802

     ----------------------------------------------------------------


     total cpu time spent up to now is    27351.4 secs

     total energy              =  -24446.24617097 Ry
     estimated scf accuracy    <      12.76108323 Ry

     total magnetization       =     8.71 Bohr mag/cell
     absolute magnetization    =     9.21 Bohr mag/cell

     iteration #  4     ecut=    60.00 Ry     beta= 0.10
     CG style diagonalization

---- Real-time Memory Report at c_bands before calling an iterative solver
             0 MiB given to the printing process from OS
             0 MiB allocation reported by mallinfo(arena+hblkhd)
         91773 MiB available memory on the node where the printing process lives
------------------
     ethr =  6.87E-04,  avg # of iterations =  4.2

     negative rho (up, down):  1.193E+01 1.186E+01


     ----------------------------------------------------------------

     Non-local correlation energy =             18.899060872150955

     ----------------------------------------------------------------


     total cpu time spent up to now is    30389.1 secs

     total energy              =  -24449.43703442 Ry
     estimated scf accuracy    <      12.06360228 Ry

     total magnetization       =     7.43 Bohr mag/cell
     absolute magnetization    =     7.81 Bohr mag/cell

     iteration #  5     ecut=    60.00 Ry     beta= 0.10
     CG style diagonalization

---- Real-time Memory Report at c_bands before calling an iterative solver
             0 MiB given to the printing process from OS
             0 MiB allocation reported by mallinfo(arena+hblkhd)
         91516 MiB available memory on the node where the printing process lives
------------------
     ethr =  6.50E-04,  avg # of iterations =  3.0

     negative rho (up, down):  1.106E+01 1.098E+01


     ----------------------------------------------------------------

     Non-local correlation energy =             18.873468843876477

     ----------------------------------------------------------------


     total cpu time spent up to now is    32300.2 secs

     total energy              =  -24449.00915722 Ry
     estimated scf accuracy    <       9.04783097 Ry

     total magnetization       =     7.46 Bohr mag/cell
     absolute magnetization    =     7.79 Bohr mag/cell

     iteration #  6     ecut=    60.00 Ry     beta= 0.10
     CG style diagonalization

---- Real-time Memory Report at c_bands before calling an iterative solver
             0 MiB given to the printing process from OS
             0 MiB allocation reported by mallinfo(arena+hblkhd)
         91256 MiB available memory on the node where the printing process lives
------------------
     c_bands:  1 eigenvalues not converged
     ethr =  4.87E-04,  avg # of iterations =  3.0

     negative rho (up, down):  1.097E+01 1.091E+01


     ----------------------------------------------------------------

     Non-local correlation energy =             18.807114777879676

     ----------------------------------------------------------------


     total cpu time spent up to now is    34229.2 secs

     total energy              =  -24448.87015158 Ry
     estimated scf accuracy    <       2.79003402 Ry

     total magnetization       =     5.95 Bohr mag/cell
     absolute magnetization    =     6.37 Bohr mag/cell

     iteration #  7     ecut=    60.00 Ry     beta= 0.10
     CG style diagonalization

---- Real-time Memory Report at c_bands before calling an iterative solver
             0 MiB given to the printing process from OS
             0 MiB allocation reported by mallinfo(arena+hblkhd)
         90981 MiB available memory on the node where the printing process lives
------------------
     ethr =  1.50E-04,  avg # of iterations =  6.5

     negative rho (up, down):  1.090E+01 1.085E+01


     ----------------------------------------------------------------

     Non-local correlation energy =             18.761000802288688

     ----------------------------------------------------------------


     total cpu time spent up to now is    38448.1 secs

     total energy              =  -24448.94398723 Ry
     estimated scf accuracy    <       0.56805682 Ry

     total magnetization       =     5.70 Bohr mag/cell
     absolute magnetization    =     6.12 Bohr mag/cell

     iteration #  8     ecut=    60.00 Ry     beta= 0.10
     CG style diagonalization

---- Real-time Memory Report at c_bands before calling an iterative solver
             0 MiB given to the printing process from OS
             0 MiB allocation reported by mallinfo(arena+hblkhd)
         90795 MiB available memory on the node where the printing process lives
------------------
     c_bands:  1 eigenvalues not converged
     c_bands:  1 eigenvalues not converged
     ethr =  3.06E-05,  avg # of iterations =  7.2

     negative rho (up, down):  1.052E+01 1.046E+01


     ----------------------------------------------------------------

     Non-local correlation energy =             18.788846904838529

     ----------------------------------------------------------------


     total cpu time spent up to now is    43364.0 secs

     total energy              =  -24448.94964080 Ry
     estimated scf accuracy    <       1.02960244 Ry

     total magnetization       =     5.54 Bohr mag/cell
     absolute magnetization    =     5.96 Bohr mag/cell

     iteration #  9     ecut=    60.00 Ry     beta= 0.10
     CG style diagonalization

---- Real-time Memory Report at c_bands before calling an iterative solver
             0 MiB given to the printing process from OS
             0 MiB allocation reported by mallinfo(arena+hblkhd)
         90553 MiB available memory on the node where the printing process lives
------------------
     c_bands:  1 eigenvalues not converged
     ethr =  3.06E-05,  avg # of iterations =  6.4

     negative rho (up, down):  1.042E+01 1.037E+01


     ----------------------------------------------------------------

     Non-local correlation energy =             18.781978065168630

     ----------------------------------------------------------------


     total cpu time spent up to now is    47470.0 secs

     total energy              =  -24449.02227677 Ry
     estimated scf accuracy    <       0.28542265 Ry

     total magnetization       =     4.96 Bohr mag/cell
     absolute magnetization    =     5.36 Bohr mag/cell

     iteration # 10     ecut=    60.00 Ry     beta= 0.10
     CG style diagonalization

---- Real-time Memory Report at c_bands before calling an iterative solver
             0 MiB given to the printing process from OS
             0 MiB allocation reported by mallinfo(arena+hblkhd)
         90337 MiB available memory on the node where the printing process lives
------------------
     c_bands:  4 eigenvalues not converged
     c_bands:  2 eigenvalues not converged
     ethr =  1.54E-05,  avg # of iterations =  3.3

     negative rho (up, down):  1.039E+01 1.036E+01


     ----------------------------------------------------------------

     Non-local correlation energy =             18.748918595706655

     ----------------------------------------------------------------


     total cpu time spent up to now is    49642.5 secs

     total energy              =  -24448.98527055 Ry
     estimated scf accuracy    <       0.24677023 Ry

     total magnetization       =     4.67 Bohr mag/cell
     absolute magnetization    =     5.06 Bohr mag/cell

     iteration # 11     ecut=    60.00 Ry     beta= 0.10
     CG style diagonalization

---- Real-time Memory Report at c_bands before calling an iterative solver
             0 MiB given to the printing process from OS
             0 MiB allocation reported by mallinfo(arena+hblkhd)
         90359 MiB available memory on the node where the printing process lives
------------------
     c_bands:  1 eigenvalues not converged
     ethr =  1.33E-05,  avg # of iterations =  3.4

     negative rho (up, down):  1.034E+01 1.031E+01


     ----------------------------------------------------------------

     Non-local correlation energy =             18.755980270975591

     ----------------------------------------------------------------


     total cpu time spent up to now is    51890.5 secs

     total energy              =  -24449.00583509 Ry
     estimated scf accuracy    <       0.04353249 Ry

     total magnetization       =     3.87 Bohr mag/cell
     absolute magnetization    =     4.18 Bohr mag/cell

     iteration # 12     ecut=    60.00 Ry     beta= 0.10
     CG style diagonalization

---- Real-time Memory Report at c_bands before calling an iterative solver
             0 MiB given to the printing process from OS
             0 MiB allocation reported by mallinfo(arena+hblkhd)
         90365 MiB available memory on the node where the printing process lives
------------------
     c_bands:  4 eigenvalues not converged
     c_bands:  5 eigenvalues not converged
     ethr =  2.34E-06,  avg # of iterations =  8.2

     negative rho (up, down):  1.034E+01 1.031E+01


     ----------------------------------------------------------------

     Non-local correlation energy =             18.758166235218013

     ----------------------------------------------------------------


     total cpu time spent up to now is    57223.8 secs

     total energy              =  -24449.00548389 Ry
     estimated scf accuracy    <       0.04942891 Ry

     total magnetization       =     3.90 Bohr mag/cell
     absolute magnetization    =     4.22 Bohr mag/cell

     iteration # 13     ecut=    60.00 Ry     beta= 0.10
     CG style diagonalization

---- Real-time Memory Report at c_bands before calling an iterative solver
             0 MiB given to the printing process from OS
             0 MiB allocation reported by mallinfo(arena+hblkhd)
         90403 MiB available memory on the node where the printing process lives
------------------
     c_bands:  2 eigenvalues not converged
     c_bands:  4 eigenvalues not converged
     ethr =  2.34E-06,  avg # of iterations =  3.1

     negative rho (up, down):  1.036E+01 1.033E+01


     ----------------------------------------------------------------

     Non-local correlation energy =             18.757150204304665

     ----------------------------------------------------------------


     total cpu time spent up to now is    59217.9 secs

     total energy              =  -24449.00324108 Ry
     estimated scf accuracy    <       0.03262442 Ry

     total magnetization       =     3.74 Bohr mag/cell
     absolute magnetization    =     4.05 Bohr mag/cell

     iteration # 14     ecut=    60.00 Ry     beta= 0.10
     CG style diagonalization

---- Real-time Memory Report at c_bands before calling an iterative solver
             0 MiB given to the printing process from OS
             0 MiB allocation reported by mallinfo(arena+hblkhd)
         90406 MiB available memory on the node where the printing process lives
------------------
     c_bands:  4 eigenvalues not converged
     c_bands:  4 eigenvalues not converged
     ethr =  1.76E-06,  avg # of iterations =  3.4

     negative rho (up, down):  1.031E+01 1.028E+01


     ----------------------------------------------------------------

     Non-local correlation energy =             18.768549241687033

     ----------------------------------------------------------------


     total cpu time spent up to now is    61523.7 secs

     total energy              =  -24448.99655363 Ry
     estimated scf accuracy    <       0.02183954 Ry

     total magnetization       =     3.33 Bohr mag/cell
     absolute magnetization    =     3.63 Bohr mag/cell

     iteration # 15     ecut=    60.00 Ry     beta= 0.10
     CG style diagonalization

---- Real-time Memory Report at c_bands before calling an iterative solver
             0 MiB given to the printing process from OS
             0 MiB allocation reported by mallinfo(arena+hblkhd)
         90442 MiB available memory on the node where the printing process lives
------------------
     c_bands:  5 eigenvalues not converged
     c_bands:  5 eigenvalues not converged
     ethr =  1.18E-06,  avg # of iterations =  6.6

     negative rho (up, down):  1.030E+01 1.028E+01


     ----------------------------------------------------------------

     Non-local correlation energy =             18.773593169651772

     ----------------------------------------------------------------


     total cpu time spent up to now is    65898.0 secs

     total energy              =  -24448.99725099 Ry
     estimated scf accuracy    <       0.00544955 Ry

     total magnetization       =     3.23 Bohr mag/cell
     absolute magnetization    =     3.48 Bohr mag/cell

     iteration # 16     ecut=    60.00 Ry     beta= 0.10
     CG style diagonalization

---- Real-time Memory Report at c_bands before calling an iterative solver
             0 MiB given to the printing process from OS
             0 MiB allocation reported by mallinfo(arena+hblkhd)
         90453 MiB available memory on the node where the printing process lives
------------------
     c_bands:  4 eigenvalues not converged
     c_bands:  2 eigenvalues not converged
     ethr =  2.93E-07,  avg # of iterations =  5.2

     negative rho (up, down):  1.029E+01 1.027E+01


     ----------------------------------------------------------------

     Non-local correlation energy =             18.770805032495382

     ----------------------------------------------------------------


     total cpu time spent up to now is    69369.8 secs

     total energy              =  -24448.99671644 Ry
     estimated scf accuracy    <       0.00593308 Ry

     total magnetization       =     2.97 Bohr mag/cell
     absolute magnetization    =     3.21 Bohr mag/cell

     iteration # 17     ecut=    60.00 Ry     beta= 0.10
     CG style diagonalization

---- Real-time Memory Report at c_bands before calling an iterative solver
             0 MiB given to the printing process from OS
             0 MiB allocation reported by mallinfo(arena+hblkhd)
         90479 MiB available memory on the node where the printing process lives
------------------
     c_bands:  2 eigenvalues not converged
     c_bands:  2 eigenvalues not converged
     ethr =  2.93E-07,  avg # of iterations =  3.3

     negative rho (up, down):  1.028E+01 1.026E+01


     ----------------------------------------------------------------

     Non-local correlation energy =             18.770332897463220

     ----------------------------------------------------------------


     total cpu time spent up to now is    71545.0 secs

     total energy              =  -24448.99702579 Ry
     estimated scf accuracy    <       0.00145026 Ry

     total magnetization       =     2.43 Bohr mag/cell
     absolute magnetization    =     2.63 Bohr mag/cell

     iteration # 18     ecut=    60.00 Ry     beta= 0.10
     CG style diagonalization

---- Real-time Memory Report at c_bands before calling an iterative solver
             0 MiB given to the printing process from OS
             0 MiB allocation reported by mallinfo(arena+hblkhd)
         90489 MiB available memory on the node where the printing process lives
------------------
     c_bands:  1 eigenvalues not converged
     ethr =  7.81E-08,  avg # of iterations =  3.0

     negative rho (up, down):  1.027E+01 1.026E+01


     ----------------------------------------------------------------

     Non-local correlation energy =             18.772330305230085

     ----------------------------------------------------------------


     total cpu time spent up to now is    73476.6 secs

     total energy              =  -24448.99677137 Ry
     estimated scf accuracy    <       0.00178902 Ry

     total magnetization       =     2.14 Bohr mag/cell
     absolute magnetization    =     2.32 Bohr mag/cell

     iteration # 19     ecut=    60.00 Ry     beta= 0.10
     CG style diagonalization

---- Real-time Memory Report at c_bands before calling an iterative solver
             0 MiB given to the printing process from OS
             0 MiB allocation reported by mallinfo(arena+hblkhd)
         90477 MiB available memory on the node where the printing process lives
------------------
     c_bands:  1 eigenvalues not converged
     ethr =  7.81E-08,  avg # of iterations =  3.2

     negative rho (up, down):  1.026E+01 1.025E+01


     ----------------------------------------------------------------

     Non-local correlation energy =             18.772517352930532

     ----------------------------------------------------------------


     total cpu time spent up to now is    75551.7 secs

     total energy              =  -24448.99678114 Ry
     estimated scf accuracy    <       0.00074625 Ry

     total magnetization       =     1.82 Bohr mag/cell
     absolute magnetization    =     1.97 Bohr mag/cell

     iteration # 20     ecut=    60.00 Ry     beta= 0.10
     CG style diagonalization

---- Real-time Memory Report at c_bands before calling an iterative solver
             0 MiB given to the printing process from OS
             0 MiB allocation reported by mallinfo(arena+hblkhd)
         90492 MiB available memory on the node where the printing process lives
------------------
     ethr =  4.02E-08,  avg # of iterations =  3.0

     negative rho (up, down):  1.024E+01 1.023E+01


     ----------------------------------------------------------------

     Non-local correlation energy =             18.771526967080025

     ----------------------------------------------------------------


     total cpu time spent up to now is    77463.3 secs

     total energy              =  -24448.99673569 Ry
     estimated scf accuracy    <       0.00060503 Ry

     total magnetization       =     1.68 Bohr mag/cell
     absolute magnetization    =     1.82 Bohr mag/cell

     iteration # 21     ecut=    60.00 Ry     beta= 0.10
     CG style diagonalization

---- Real-time Memory Report at c_bands before calling an iterative solver
             0 MiB given to the printing process from OS
             0 MiB allocation reported by mallinfo(arena+hblkhd)
         90495 MiB available memory on the node where the printing process lives
------------------
     c_bands:  1 eigenvalues not converged
     ethr =  3.26E-08,  avg # of iterations =  3.5

     negative rho (up, down):  1.024E+01 1.023E+01


     ----------------------------------------------------------------

     Non-local correlation energy =             18.772559445243630

     ----------------------------------------------------------------


     total cpu time spent up to now is    79795.6 secs

     total energy              =  -24448.99680254 Ry
     estimated scf accuracy    <       0.00054618 Ry

     total magnetization       =     1.15 Bohr mag/cell
     absolute magnetization    =     1.24 Bohr mag/cell

     iteration # 22     ecut=    60.00 Ry     beta= 0.10
     CG style diagonalization

---- Real-time Memory Report at c_bands before calling an iterative solver
             0 MiB given to the printing process from OS
             0 MiB allocation reported by mallinfo(arena+hblkhd)
         90503 MiB available memory on the node where the printing process lives
------------------
     ethr =  2.94E-08,  avg # of iterations =  3.0

     negative rho (up, down):  1.023E+01 1.022E+01


     ----------------------------------------------------------------

     Non-local correlation energy =             18.774034923707475

     ----------------------------------------------------------------


     total cpu time spent up to now is    81737.5 secs

     total energy              =  -24448.99694311 Ry
     estimated scf accuracy    <       0.00024616 Ry

     total magnetization       =     1.05 Bohr mag/cell
     absolute magnetization    =     1.14 Bohr mag/cell

     iteration # 23     ecut=    60.00 Ry     beta= 0.10
     CG style diagonalization

---- Real-time Memory Report at c_bands before calling an iterative solver
             0 MiB given to the printing process from OS
             0 MiB allocation reported by mallinfo(arena+hblkhd)
         90496 MiB available memory on the node where the printing process lives
------------------
     ethr =  1.33E-08,  avg # of iterations =  3.6

     negative rho (up, down):  1.023E+01 1.022E+01


     ----------------------------------------------------------------

     Non-local correlation energy =             18.773401803129854

     ----------------------------------------------------------------


     total cpu time spent up to now is    84196.3 secs

     total energy              =  -24448.99700532 Ry
     estimated scf accuracy    <       0.00029476 Ry

     total magnetization       =     0.67 Bohr mag/cell
     absolute magnetization    =     0.73 Bohr mag/cell

     iteration # 24     ecut=    60.00 Ry     beta= 0.10
     CG style diagonalization

---- Real-time Memory Report at c_bands before calling an iterative solver
             0 MiB given to the printing process from OS
             0 MiB allocation reported by mallinfo(arena+hblkhd)
         90518 MiB available memory on the node where the printing process lives
------------------
     ethr =  1.33E-08,  avg # of iterations =  3.0

     negative rho (up, down):  1.022E+01 1.022E+01


     ----------------------------------------------------------------

     Non-local correlation energy =             18.773226689055036

     ----------------------------------------------------------------


     total cpu time spent up to now is    86102.8 secs

     total energy              =  -24448.99701788 Ry
     estimated scf accuracy    <       0.00017720 Ry

     total magnetization       =     0.68 Bohr mag/cell
     absolute magnetization    =     0.73 Bohr mag/cell

     iteration # 25     ecut=    60.00 Ry     beta= 0.10
     CG style diagonalization

---- Real-time Memory Report at c_bands before calling an iterative solver
             0 MiB given to the printing process from OS
             0 MiB allocation reported by mallinfo(arena+hblkhd)
         90505 MiB available memory on the node where the printing process lives
------------------
     ethr =  9.54E-09,  avg # of iterations =  3.0

     negative rho (up, down):  1.022E+01 1.021E+01


     ----------------------------------------------------------------

     Non-local correlation energy =             18.773088007519302

     ----------------------------------------------------------------


     total cpu time spent up to now is    88009.2 secs

     total energy              =  -24448.99705601 Ry
     estimated scf accuracy    <       0.00011710 Ry

     total magnetization       =     0.63 Bohr mag/cell
     absolute magnetization    =     0.68 Bohr mag/cell

     iteration # 26     ecut=    60.00 Ry     beta= 0.10
     CG style diagonalization

---- Real-time Memory Report at c_bands before calling an iterative solver
             0 MiB given to the printing process from OS
             0 MiB allocation reported by mallinfo(arena+hblkhd)
         90495 MiB available memory on the node where the printing process lives
------------------
     ethr =  6.31E-09,  avg # of iterations =  3.0

     negative rho (up, down):  1.021E+01 1.021E+01


     ----------------------------------------------------------------

     Non-local correlation energy =             18.773214917755254

     ----------------------------------------------------------------


     total cpu time spent up to now is    89959.1 secs

     total energy              =  -24448.99721057 Ry
     estimated scf accuracy    <       0.00007741 Ry

     total magnetization       =     0.54 Bohr mag/cell
     absolute magnetization    =     0.59 Bohr mag/cell

     iteration # 27     ecut=    60.00 Ry     beta= 0.10
     CG style diagonalization

---- Real-time Memory Report at c_bands before calling an iterative solver
             0 MiB given to the printing process from OS
             0 MiB allocation reported by mallinfo(arena+hblkhd)
         90501 MiB available memory on the node where the printing process lives
------------------
     ethr =  4.17E-09,  avg # of iterations =  3.2

     negative rho (up, down):  1.021E+01 1.021E+01


     ----------------------------------------------------------------

     Non-local correlation energy =             18.774076937109289

     ----------------------------------------------------------------


     total cpu time spent up to now is    92060.5 secs

     total energy              =  -24448.99726315 Ry
     estimated scf accuracy    <       0.00004326 Ry

     total magnetization       =     0.34 Bohr mag/cell
     absolute magnetization    =     0.37 Bohr mag/cell

     iteration # 28     ecut=    60.00 Ry     beta= 0.10
     CG style diagonalization

---- Real-time Memory Report at c_bands before calling an iterative solver
             0 MiB given to the printing process from OS
             0 MiB allocation reported by mallinfo(arena+hblkhd)
         90471 MiB available memory on the node where the printing process lives
------------------
     ethr =  2.33E-09,  avg # of iterations =  3.5

     negative rho (up, down):  1.021E+01 1.020E+01


     ----------------------------------------------------------------

     Non-local correlation energy =             18.773531445600685

     ----------------------------------------------------------------


     total cpu time spent up to now is    94450.6 secs

     total energy              =  -24448.99733972 Ry
     estimated scf accuracy    <       0.00006595 Ry

     total magnetization       =     0.29 Bohr mag/cell
     absolute magnetization    =     0.32 Bohr mag/cell

     iteration # 29     ecut=    60.00 Ry     beta= 0.10
     CG style diagonalization

---- Real-time Memory Report at c_bands before calling an iterative solver
             0 MiB given to the printing process from OS
             0 MiB allocation reported by mallinfo(arena+hblkhd)
         90488 MiB available memory on the node where the printing process lives
------------------
     c_bands:  4 eigenvalues not converged
     c_bands:  5 eigenvalues not converged
     ethr =  2.33E-09,  avg # of iterations =  3.8

     negative rho (up, down):  1.020E+01 1.020E+01


     ----------------------------------------------------------------

     Non-local correlation energy =             18.773684474346041

     ----------------------------------------------------------------


     total cpu time spent up to now is    97084.3 secs

     total energy              =  -24448.99737754 Ry
     estimated scf accuracy    <       0.00001184 Ry

     total magnetization       =     0.24 Bohr mag/cell
     absolute magnetization    =     0.26 Bohr mag/cell

     iteration # 30     ecut=    60.00 Ry     beta= 0.10
     CG style diagonalization

---- Real-time Memory Report at c_bands before calling an iterative solver
             0 MiB given to the printing process from OS
             0 MiB allocation reported by mallinfo(arena+hblkhd)
         90492 MiB available memory on the node where the printing process lives
------------------
     c_bands:  3 eigenvalues not converged
     c_bands:  4 eigenvalues not converged
     ethr =  6.38E-10,  avg # of iterations =  3.1

     negative rho (up, down):  1.020E+01 1.020E+01


     ----------------------------------------------------------------

     Non-local correlation energy =             18.773961481061747

     ----------------------------------------------------------------


     total cpu time spent up to now is    99063.8 secs

     total energy              =  -24448.99739907 Ry
     estimated scf accuracy    <       0.00000663 Ry

     total magnetization       =     0.19 Bohr mag/cell
     absolute magnetization    =     0.20 Bohr mag/cell

     iteration # 31     ecut=    60.00 Ry     beta= 0.10
     CG style diagonalization

---- Real-time Memory Report at c_bands before calling an iterative solver
             0 MiB given to the printing process from OS
             0 MiB allocation reported by mallinfo(arena+hblkhd)
         90474 MiB available memory on the node where the printing process lives
------------------
     ethr =  3.57E-10,  avg # of iterations =  3.5

     negative rho (up, down):  1.020E+01 1.020E+01


     ----------------------------------------------------------------

     Non-local correlation energy =             18.773962401402361

     ----------------------------------------------------------------


     total cpu time spent up to now is   101460.4 secs

     total energy              =  -24448.99740168 Ry
     estimated scf accuracy    <       0.00000506 Ry

     total magnetization       =     0.15 Bohr mag/cell
     absolute magnetization    =     0.16 Bohr mag/cell

     iteration # 32     ecut=    60.00 Ry     beta= 0.10
     CG style diagonalization

---- Real-time Memory Report at c_bands before calling an iterative solver
             0 MiB given to the printing process from OS
             0 MiB allocation reported by mallinfo(arena+hblkhd)
         90490 MiB available memory on the node where the printing process lives
------------------
     ethr =  2.72E-10,  avg # of iterations =  3.0

     negative rho (up, down):  1.020E+01 1.020E+01


     ----------------------------------------------------------------

     Non-local correlation energy =             18.773919810688270

     ----------------------------------------------------------------


     total cpu time spent up to now is   103372.8 secs

     total energy              =  -24448.99740532 Ry
     estimated scf accuracy    <       0.00000289 Ry

     total magnetization       =     0.12 Bohr mag/cell
     absolute magnetization    =     0.13 Bohr mag/cell

     iteration # 33     ecut=    60.00 Ry     beta= 0.10
     CG style diagonalization

---- Real-time Memory Report at c_bands before calling an iterative solver
             0 MiB given to the printing process from OS
             0 MiB allocation reported by mallinfo(arena+hblkhd)
         90491 MiB available memory on the node where the printing process lives
------------------
     ethr =  1.56E-10,  avg # of iterations =  3.0

     negative rho (up, down):  1.020E+01 1.020E+01


     ----------------------------------------------------------------

     Non-local correlation energy =             18.773997083897328

     ----------------------------------------------------------------


     total cpu time spent up to now is   105296.8 secs

     total energy              =  -24448.99742119 Ry
     estimated scf accuracy    <       0.00000204 Ry

     total magnetization       =     0.11 Bohr mag/cell
     absolute magnetization    =     0.12 Bohr mag/cell

     iteration # 34     ecut=    60.00 Ry     beta= 0.10
     CG style diagonalization

---- Real-time Memory Report at c_bands before calling an iterative solver
             0 MiB given to the printing process from OS
             0 MiB allocation reported by mallinfo(arena+hblkhd)
         90489 MiB available memory on the node where the printing process lives
------------------
     ethr =  1.10E-10,  avg # of iterations =  3.2

     negative rho (up, down):  1.020E+01 1.020E+01


     ----------------------------------------------------------------

     Non-local correlation energy =             18.773945233218864

     ----------------------------------------------------------------


     total cpu time spent up to now is   107350.6 secs

     total energy              =  -24448.99742240 Ry
     estimated scf accuracy    <       0.00000153 Ry

     total magnetization       =     0.13 Bohr mag/cell
     absolute magnetization    =     0.13 Bohr mag/cell

     iteration # 35     ecut=    60.00 Ry     beta= 0.10
     CG style diagonalization

---- Real-time Memory Report at c_bands before calling an iterative solver
             0 MiB given to the printing process from OS
             0 MiB allocation reported by mallinfo(arena+hblkhd)
         90500 MiB available memory on the node where the printing process lives
------------------
     ethr =  8.22E-11,  avg # of iterations =  3.5

     negative rho (up, down):  1.020E+01 1.020E+01


     ----------------------------------------------------------------

     Non-local correlation energy =             18.774041676497006

     ----------------------------------------------------------------

 
     Magnetic moment per site  (integrated on atomic sphere of radius R)
     atom   1 (R=0.030)  charge=  9.6489  magn=  0.0002
     atom   2 (R=0.030)  charge=  9.6991  magn=  0.0004
     atom   3 (R=0.030)  charge=  9.6769  magn=  0.0004
     atom   4 (R=0.030)  charge=  9.6769  magn=  0.0004
     atom   5 (R=0.030)  charge=  9.6977  magn=  0.0007
     atom   6 (R=0.030)  charge=  9.6770  magn=  0.0004
     atom   7 (R=0.030)  charge=  9.6974  magn=  0.0008
     atom   8 (R=0.030)  charge=  9.6843  magn=  0.0002
     atom   9 (R=0.030)  charge=  9.6865  magn=  0.0002
     atom  10 (R=0.030)  charge=  9.6811  magn=  0.0003
     atom  11 (R=0.030)  charge=  9.6747  magn=  0.0006
     atom  12 (R=0.030)  charge=  9.6843  magn=  0.0002
     atom  13 (R=0.030)  charge=  9.6977  magn=  0.0007
     atom  14 (R=0.030)  charge=  9.6770  magn=  0.0004
     atom  15 (R=0.030)  charge=  9.6747  magn=  0.0006
     atom  16 (R=0.030)  charge=  9.6974  magn=  0.0008
     atom  17 (R=0.030)  charge=  9.6767  magn=  0.0005
     atom  18 (R=0.030)  charge=  9.6851  magn=  0.0004
     atom  19 (R=0.030)  charge=  9.6974  magn=  0.0010
     atom  20 (R=0.030)  charge=  9.6750  magn=  0.0008
     atom  21 (R=0.030)  charge=  9.6768  magn=  0.0005
     atom  22 (R=0.030)  charge=  9.6851  magn=  0.0004
     atom  23 (R=0.030)  charge=  9.6767  magn=  0.0005
     atom  24 (R=0.030)  charge=  9.6768  magn=  0.0005
     atom  25 (R=0.030)  charge=  9.6973  magn=  0.0010
     atom  26 (R=0.030)  charge=  9.6768  magn=  0.0004
     atom  27 (R=0.030)  charge=  9.6974  magn=  0.0009
     atom  28 (R=0.030)  charge=  9.6974  magn=  0.0009
     atom  29 (R=0.030)  charge=  9.6851  magn=  0.0003
     atom  30 (R=0.030)  charge=  9.6750  magn=  0.0005
     atom  31 (R=0.030)  charge=  9.6866  magn=  0.0003
     atom  32 (R=0.030)  charge=  9.6754  magn=  0.0008
     atom  33 (R=0.030)  charge=  9.6851  magn=  0.0003
     atom  34 (R=0.030)  charge=  9.6768  magn=  0.0004
     atom  35 (R=0.030)  charge=  9.6974  magn=  0.0009
     atom  36 (R=0.030)  charge=  9.6754  magn=  0.0008
     atom  37 (R=0.030)  charge=  9.6974  magn=  0.0009
     atom  38 (R=0.030)  charge=  9.6852  magn=  0.0004
     atom  39 (R=0.030)  charge=  9.6753  magn=  0.0007
     atom  40 (R=0.030)  charge=  9.6756  magn=  0.0008
     atom  41 (R=0.030)  charge=  9.6861  magn=  0.0003
     atom  42 (R=0.030)  charge=  9.6712  magn=  0.0006
     atom  43 (R=0.030)  charge=  9.6735  magn=  0.0002
     atom  44 (R=0.030)  charge=  9.6677  magn=  0.0003
     atom  45 (R=0.030)  charge=  9.6683  magn=  0.0003
     atom  46 (R=0.030)  charge=  9.6712  magn=  0.0006
     atom  47 (R=0.030)  charge=  9.6753  magn=  0.0007
     atom  48 (R=0.030)  charge=  9.6756  magn=  0.0008
     atom  49 (R=0.030)  charge=  9.6683  magn=  0.0003
     atom  50 (R=0.030)  charge=  9.6852  magn=  0.0004
     atom  51 (R=0.030)  charge=  9.6861  magn=  0.0003
     atom  52 (R=0.030)  charge=  9.6852  magn=  0.0004
     atom  53 (R=0.030)  charge=  9.6769  magn=  0.0005
     atom  54 (R=0.030)  charge=  9.6752  magn=  0.0008
     atom  55 (R=0.030)  charge=  9.6973  magn=  0.0009
     atom  56 (R=0.030)  charge=  9.6716  magn=  0.0008
     atom  57 (R=0.030)  charge=  9.6753  magn=  0.0008
     atom  58 (R=0.030)  charge=  9.6680  magn=  0.0003
     atom  59 (R=0.030)  charge=  9.6759  magn=  0.0008
     atom  60 (R=0.030)  charge=  9.6716  magn=  0.0008
     atom  61 (R=0.030)  charge=  9.6769  magn=  0.0005
     atom  62 (R=0.030)  charge=  9.6752  magn=  0.0008
     atom  63 (R=0.030)  charge=  9.6759  magn=  0.0008
     atom  64 (R=0.030)  charge=  9.6852  magn=  0.0004
     atom  65 (R=0.030)  charge=  9.6973  magn=  0.0009
     atom  66 (R=0.030)  charge=  9.6974  magn=  0.0010
     atom  67 (R=0.030)  charge=  9.6851  magn=  0.0005
     atom  68 (R=0.030)  charge=  9.6862  magn=  0.0003
     atom  69 (R=0.030)  charge=  9.6851  magn=  0.0005
     atom  70 (R=0.030)  charge=  9.6974  magn=  0.0010
     atom  71 (R=0.030)  charge=  9.6768  magn=  0.0006
     atom  72 (R=0.030)  charge=  9.6851  magn=  0.0005
     atom  73 (R=0.030)  charge=  9.6752  magn=  0.0009
     atom  74 (R=0.030)  charge=  9.6974  magn=  0.0010
     atom  75 (R=0.030)  charge=  9.6770  magn=  0.0006
     atom  76 (R=0.030)  charge=  9.6851  magn=  0.0005
     atom  77 (R=0.030)  charge=  9.6768  magn=  0.0006
     atom  78 (R=0.030)  charge=  9.6770  magn=  0.0006
     atom  79 (R=0.030)  charge=  9.6850  magn=  0.0005
     atom  80 (R=0.030)  charge=  9.6753  magn=  0.0009
     atom  81 (R=0.030)  charge=  9.6769  magn=  0.0006
     atom  82 (R=0.030)  charge=  9.6973  magn=  0.0011
     atom  83 (R=0.030)  charge=  9.6716  magn=  0.0009
     atom  84 (R=0.030)  charge=  9.6682  magn=  0.0003
     atom  85 (R=0.030)  charge=  9.6753  magn=  0.0010
     atom  86 (R=0.030)  charge=  9.6753  magn=  0.0009
     atom  87 (R=0.030)  charge=  9.6716  magn=  0.0009
     atom  88 (R=0.030)  charge=  9.6753  magn=  0.0009
     atom  89 (R=0.030)  charge=  9.6769  magn=  0.0006
     atom  90 (R=0.030)  charge=  9.6753  magn=  0.0009
     atom  91 (R=0.030)  charge=  9.6850  magn=  0.0005
     atom  92 (R=0.030)  charge=  9.6973  magn=  0.0011
     atom  93 (R=0.030)  charge=  9.6852  magn=  0.0005
     atom  94 (R=0.030)  charge=  9.6767  magn=  0.0005
     atom  95 (R=0.030)  charge=  9.6770  magn=  0.0005
     atom  96 (R=0.030)  charge=  9.6718  magn=  0.0008
     atom  97 (R=0.030)  charge=  9.6737  magn=  0.0007
     atom  98 (R=0.030)  charge=  9.6752  magn=  0.0009
     atom  99 (R=0.030)  charge=  9.6771  magn=  0.0005
     atom 100 (R=0.030)  charge=  9.6718  magn=  0.0008
     atom 101 (R=0.030)  charge=  9.6767  magn=  0.0005
     atom 102 (R=0.030)  charge=  9.6770  magn=  0.0005
     atom 103 (R=0.030)  charge=  9.6771  magn=  0.0005
     atom 104 (R=0.030)  charge=  9.6851  magn=  0.0005
     atom 105 (R=0.030)  charge=  9.6851  magn=  0.0005
     atom 106 (R=0.030)  charge=  9.6963  magn=  0.0009
     atom 107 (R=0.030)  charge=  9.6851  magn=  0.0005
     atom 108 (R=0.030)  charge=  9.6973  magn=  0.0011
     atom 109 (R=0.030)  charge=  9.6976  magn=  0.0011
     atom 110 (R=0.030)  charge=  9.6852  magn=  0.0006
     atom 111 (R=0.030)  charge=  9.6864  magn=  0.0004
     atom 112 (R=0.030)  charge=  9.6852  magn=  0.0006
     atom 113 (R=0.030)  charge=  9.6976  magn=  0.0011
     atom 114 (R=0.030)  charge=  9.6853  magn=  0.0005
     atom 115 (R=0.030)  charge=  9.6978  magn=  0.0010
     atom 116 (R=0.030)  charge=  9.6853  magn=  0.0005
     atom 117 (R=0.030)  charge=  0.8140  magn= -0.0000

     total cpu time spent up to now is   109742.9 secs

     End of self-consistent calculation

 ------ SPIN UP ------------


          k = 0.0000 0.0000 0.0000 (413569 PWs)   bands (ev):

   -55.5538 -55.5050 -55.5031 -55.4917 -55.4882 -55.4876 -55.4856 -55.4803
   -55.4773 -55.4773 -55.4746 -55.4622 -55.4291 -55.4288 -55.4274 -55.4267
   -55.4239 -55.4160 -55.4041 -55.4022 -55.3901 -55.3882 -55.3834 -55.3827
   -55.3825 -55.3779 -55.3751 -55.3714 -55.3652 -55.3420 -55.3420 -55.3365
   -55.3154 -55.3145 -55.3136 -55.3128 -55.3127 -55.3118 -55.3094 -55.3078
   -55.3064 -55.2991 -55.2960 -55.2856 -55.2839 -55.2726 -55.2726 -55.2694
   -55.2685 -55.2682 -55.2672 -55.2657 -55.2620 -55.2604 -55.2574 -55.2563
   -55.2551 -55.2429 -55.2362 -55.2341 -55.2330 -55.2315 -55.2302 -55.2301
   -55.2224 -55.2198 -55.2186 -55.2161 -55.2065 -55.2000 -55.1917 -55.1907
   -55.1875 -55.1859 -55.1838 -55.1835 -55.1828 -55.1815 -55.1806 -55.1802
   -55.1770 -55.1581 -55.1535 -55.1508 -55.1482 -55.1437 -55.1430 -55.1395
   -55.1368 -55.1307 -55.1292 -55.1285 -55.1145 -55.1134 -55.1124 -55.1122
   -55.1118 -55.1095 -55.1090 -55.1076 -55.1073 -55.1056 -55.1043 -55.1040
   -55.1023 -55.1016 -55.0982 -55.0904 -55.0894 -55.0866 -55.0816 -55.0810
   -55.0795 -55.0546 -54.9199 -54.9127 -54.9090 -54.9068 -54.9067 -54.9048
   -54.9045 -54.9023 -54.8721 -54.8612 -54.8529 -54.8519 -54.8499 -54.8497
   -54.8493 -54.8483 -54.8482 -54.8462 -54.8457 -54.8444 -54.8440 -54.8436
   -54.8410 -54.8384 -54.8256 -54.8133 -54.7912 -54.7867 -54.7845 -54.7810
   -54.7791 -54.7745 -54.7673 -54.7642 -54.7634 -54.7433 -54.7425 -54.7403
   -54.7385 -54.7353 -54.7341 -54.7338 -54.7330 -54.7319 -54.7316 -54.7306
   -54.7289 -54.7287 -54.7285 -54.7209 -54.7146 -54.7142 -54.7128 -54.7123
   -54.7115 -54.7083 -54.7081 -54.7075 -54.7062 -54.7060 -54.7035 -54.7029
   -54.7013 -54.7011 -54.6998 -54.6761 -54.6730 -54.6723 -54.6719 -54.6698
   -54.6680 -54.6649 -54.6629 -54.6621 -54.6618 -54.6609 -54.6585 -54.6582
   -54.6563 -54.6547 -54.6523 -54.6508 -54.6487 -54.6482 -54.6459 -54.6436
   -54.6284 -54.5541 -54.5530 -54.5395 -54.5380 -54.5376 -54.5374 -54.5359
   -54.5354 -54.5270 -54.5267 -54.5260 -54.5256 -54.4911 -54.4904 -54.4901
   -54.4887 -54.4870 -54.4864 -54.4856 -54.4811 -54.4800 -54.4799 -54.4790
   -54.4785 -54.4776 -54.4770 -54.4769 -54.4762 -54.4745 -54.4727 -54.4674
   -54.4651 -54.4637 -54.4623 -54.4613 -54.4598 -54.4597 -54.4583 -54.4576
   -54.4572 -54.4504 -54.4436 -54.4432 -54.4408 -54.4395 -54.4381 -54.4373
   -54.4371 -54.4340 -54.4338 -54.4322 -54.4317 -54.4248 -54.4221 -54.4212
   -54.4204 -54.4198 -54.4192 -54.3988 -54.3837 -54.3821 -54.3807 -54.3807
   -54.3800 -54.3784 -54.3778 -54.3758 -54.3750 -54.3726 -54.3717 -54.3715
   -54.3686 -54.3678 -54.3663 -54.3659 -54.3654 -54.3627 -54.3608 -54.3523
   -54.3514 -54.3505 -54.3501 -54.3492 -54.3490 -54.3487 -54.3478 -54.3396
   -54.3392 -54.3375 -54.3372 -54.3368 -54.3367 -54.3362 -54.3360 -54.3356
   -54.3352 -54.3349 -54.3345 -54.3322 -54.3319 -54.3315 -54.3301 -54.3225
   -54.3221 -54.3201 -54.3196 -54.3189 -54.3187 -54.3186 -54.3185 -54.3144
   -54.3142 -54.3134 -54.3133 -54.3112 -54.3109 -54.3109 -54.3100 -54.3098
   -54.3094 -54.3086 -54.3072 -54.3043 -54.3020 -54.2668 -54.2596 -54.2589
   -54.2589 -54.2576 -54.2569 -54.2568 -54.2567 -54.2562 -54.2551 -54.2548
   -54.2306 -54.2295 -54.2252 -54.2248 -54.2248 -54.2241 -54.2241 -54.2239
   -54.2238 -54.2232 -54.2213 -54.2213 -11.5153 -10.6760 -10.6737 -10.6724
    -9.8110  -9.8039  -9.8031  -9.7773  -9.7732  -9.5608  -9.1967  -9.1913
    -9.1909  -9.1003  -8.9867  -8.9689  -8.9687  -8.7800  -8.7658  -8.7633
    -8.7275  -8.7270  -8.7266  -8.6676  -8.6047  -8.6026  -8.5998  -8.5958
    -8.5933  -8.5932  -8.5827  -8.5747  -8.5668  -8.5664  -8.4019  -8.3950
    -8.3929  -8.3559  -8.3478  -8.3346  -8.3330  -8.3326  -8.3076  -8.3044
    -8.3026  -8.2622  -8.2611  -8.2607  -8.1314  -8.1304  -8.0751  -8.0717
    -8.0693  -8.0073  -7.9928  -7.9801  -7.9304  -7.9223  -7.9219  -7.9215
    -7.9213  -7.9207  -7.8743  -7.8526  -7.8506  -7.8462  -7.8454  -7.8386
    -7.8375  -7.7510  -7.7449  -7.7281  -7.7114  -7.7112  -7.6827  -7.6036
    -7.5973  -7.5924  -7.5896  -7.5870  -7.5847  -7.5843  -7.5836  -7.5833
    -7.5816  -7.5744  -7.5743  -7.5738  -7.5615  -7.5573  -7.5560  -7.4936
    -7.4734  -7.4698  -7.4692  -7.4684  -7.4674  -7.4666  -7.4586  -7.4560
    -7.4510  -7.4486  -7.4470  -7.4213  -7.4007  -7.3994  -7.3993  -7.3394
    -7.3225  -7.3213  -7.2455  -7.2430  -7.2394  -7.1982  -7.1977  -7.1960
    -7.1224  -7.1121  -7.1119  -7.0780  -7.0766  -7.0753  -7.0125  -7.0081
    -7.0061  -6.9734  -6.9635  -6.9622  -6.9295  -6.9263  -6.9261  -6.9200
    -6.9146  -6.9116  -6.8212  -6.8121  -6.8090  -6.7719  -6.7078  -6.6640
    -6.6539  -6.6094  -6.6032  -6.6013  -6.5956  -6.5950  -6.5930  -6.5849
    -6.5793  -6.5766  -6.5650  -6.5394  -6.5374  -6.5364  -6.5331  -6.5312
    -6.4938  -6.4827  -6.4793  -6.4720  -6.4682  -6.4680  -6.4634  -6.4628
    -6.4625  -6.4611  -6.4610  -6.4596  -6.4592  -6.4590  -6.3778  -6.3585
    -6.3557  -6.3495  -6.3459  -6.3396  -6.3367  -6.3076  -6.3069  -6.3050
    -6.2776  -6.2513  -6.2460  -6.2456  -6.2414  -6.2401  -6.2393  -6.2171
    -6.2113  -6.2111  -6.1957  -6.1932  -6.1921  -6.1496  -6.1466  -6.1162
    -6.1134  -6.0962  -6.0926  -6.0862  -6.0776  -6.0633  -6.0476  -6.0419
    -6.0415  -6.0242  -6.0187  -6.0184  -6.0133  -6.0030  -6.0013  -5.9975
    -5.9934  -5.9932  -5.9293  -5.9085  -5.9082  -5.9079  -5.9068  -5.8759
    -5.8757  -5.8752  -5.8455  -5.8300  -5.8278  -5.7881  -5.7411  -5.7405
    -5.7126  -5.7122  -5.7118  -5.6940  -5.6928  -5.6676  -5.6673  -5.6567
    -5.6564  -5.6497  -5.6435  -5.6430  -5.6395  -5.6394  -5.6372  -5.6237
    -5.6216  -5.6205  -5.5664  -5.5424  -5.5303  -5.5275  -5.5265  -5.5146
    -5.5144  -5.5119  -5.4874  -5.4860  -5.4659  -5.4643  -5.4621  -5.4559
    -5.4426  -5.4397  -5.4330  -5.4186  -5.4158  -5.4056  -5.3772  -5.3745
    -5.3674  -5.3303  -5.3272  -5.2991  -5.2943  -5.2921  -5.2630  -5.2387
    -5.2379  -5.2322  -5.2062  -5.1790  -5.1775  -5.1716  -5.1633  -5.1441
    -5.1364  -5.1276  -5.1272  -5.1265  -5.1259  -5.1248  -5.1164  -5.1137
    -5.1096  -5.0766  -5.0762  -5.0730  -5.0693  -5.0504  -5.0493  -5.0390
    -5.0082  -4.9932  -4.9916  -4.9844  -4.9825  -4.9811  -4.9799  -4.9779
    -4.9000  -4.8911  -4.8883  -4.8868  -4.8553  -4.8552  -4.8495  -4.8441
    -4.8354  -4.8239  -4.8226  -4.8187  -4.8101  -4.8098  -4.8027  -4.7601
    -4.7581  -4.7493  -4.7486  -4.7478  -4.7471  -4.7171  -4.6396  -4.6377
    -4.6201  -4.5660  -4.5629  -4.5618  -4.5563  -4.5554  -4.5527  -4.5421
    -4.5364  -4.5134  -4.5126  -4.5122  -4.5048  -4.5041  -4.4856  -4.4820
    -4.4754  -4.4648  -4.4638  -4.4603  -4.4148  -4.4003  -4.3978  -4.3873
    -4.3618  -4.3597  -4.3577  -4.3516  -4.3460  -4.3257  -4.3238  -4.3177
    -4.3175  -4.3164  -4.3130  -4.2895  -4.2854  -4.2850  -4.2783  -4.2770
    -4.2735  -4.2722  -4.2641  -4.2533  -4.2503  -4.2436  -4.1668  -4.1549
    -4.1451  -4.1406  -4.1384  -4.1383  -4.1198  -4.1059  -4.1056  -4.1039
    -4.1032  -4.1016  -4.1000  -4.0402  -4.0390  -4.0345  -4.0163  -4.0128
    -3.9960  -3.9756  -3.9710  -3.9700  -3.9282  -3.9147  -3.9128  -3.9127
    -3.9115  -3.8985  -3.8955  -3.8910  -3.8742  -3.8346  -3.8122  -3.8106
    -3.8087  -3.8073  -3.8069  -3.8063  -3.7977  -3.7930  -3.7928  -3.7885
    -3.7834  -3.7626  -3.7572  -3.7553  -3.7472  -3.7459  -3.7428  -3.7424
    -3.7249  -3.7240  -3.7173  -3.6952  -3.6939  -3.6922  -3.6804  -3.6802
    -3.6549  -3.6267  -3.6247  -3.6238  -3.6181  -3.6174  -3.6037  -3.6011
    -3.6003  -3.5877  -3.5726  -3.5717  -3.5650  -3.5557  -3.5421  -3.5411
    -3.5398  -3.5321  -3.5243  -3.4990  -3.4984  -3.4809  -3.4650  -3.4520
    -3.4437  -3.4217  -3.4167  -3.4056  -3.4054  -3.3916  -3.3691  -3.3605
    -3.3597  -3.3587  -3.3303  -3.3295  -3.3063  -3.3047  -3.3031  -3.2912
    -3.2533  -3.2495  -3.2444  -3.2385  -3.2372  -3.2190  -3.2178  -3.2142
    -3.2069  -3.2048  -3.1985  -3.1844  -3.1831  -3.1762  -3.1756  -3.1726
    -3.1523  -3.1278  -3.1243  -3.1127  -3.1123  -3.1108  -3.1096  -3.1055
    -3.0999  -3.0980  -3.0946  -3.0919  -3.0893  -3.0777  -3.0654  -3.0647
    -3.0601  -3.0132  -3.0124  -3.0106  -2.9872  -2.9868  -2.9860  -2.9814
    -2.9809  -2.9389  -2.9213  -2.9175  -2.9168  -2.8726  -2.8719  -2.8686
    -2.8644  -2.8631  -2.8609  -2.8472  -2.8454  -2.8438  -2.8122  -2.7943
    -2.7923  -2.7898  -2.7812  -2.7563  -2.7389  -2.7052  -2.7003  -2.6959
    -2.6950  -2.6944  -2.6943  -2.6930  -2.6929  -2.6902  -2.6894  -2.6886
    -2.6383  -2.6363  -2.6348  -2.6328  -2.6136  -2.6123  -2.6118  -2.6104
    -2.6077  -2.6069  -2.6067  -2.6059  -2.6019  -2.6014  -2.6000  -2.5981
    -2.5934  -2.5910  -2.5691  -2.5664  -2.5658  -2.5644  -2.5448  -2.5391
    -2.5385  -2.5373  -2.5364  -2.5346  -2.5038  -2.4859  -2.4671  -2.4481
    -2.4448  -2.4444  -2.4294  -2.4091  -2.4087  -2.3936  -2.3875  -2.3862
    -2.3618  -2.3582  -2.3582  -2.3365  -2.3064  -2.3055  -2.3013  -2.2899
    -2.2898  -2.2836  -2.2710  -2.2693  -2.2684  -2.2680  -2.2612  -2.2318
    -2.2200  -2.2188  -2.1900  -2.1660  -2.1484  -2.1285  -2.1261  -2.0955
    -2.0899  -2.0787  -2.0781  -2.0753  -2.0632  -2.0615  -2.0606  -2.0598
    -2.0598  -2.0583  -2.0572  -2.0565  -1.8489  -1.8465  -1.6764  -1.2927
    -1.2911  -1.2908  -1.2905  -1.2889  -1.2639  -1.2177  -1.1641  -1.1633
    -1.1587  -1.1521  -1.1511  -1.1187  -1.1180  -1.1152  -1.1121  -1.0585
    -1.0554  -1.0457  -0.9375  -0.9338  -0.9331  -0.6258  -0.4441  -0.4408
    -0.3947  -0.1740  -0.0062  -0.0059  -0.0059   0.0621   0.0628   0.0728
     0.0797   0.0838   0.1216   0.1528   0.1531   0.1793   0.2572   0.2583
     0.2607   0.2648   0.2689   0.2692   0.2692   0.2822   0.2838   0.3979
     0.3981   0.3999   0.4872   0.7970   1.2141   1.2164   1.2267   1.3496
     1.3516   1.3984   1.4632   1.4644   1.4851   1.4859   1.4862   1.4915
     1.4921   1.5230   1.5272   1.5286   1.5405   1.5609   1.5612   1.5978
     1.6029   1.6390   1.6620   1.6627   1.6811   1.6816   1.6822   1.8876
     2.1524   2.2195   2.2201   2.2464   2.3136   2.3187   2.3284   2.4732
     2.4951   2.5119   2.5216   2.5222   2.5495   2.6742   2.6951   2.7021
     2.7122   2.7127   2.7396   2.7580   2.7585   2.7667   2.7722   2.7752
     2.7754   2.7892   2.7908   2.8237   2.8362   2.8506   2.8594   2.8601
     2.8605   2.8912   2.8927   2.8946   2.8987   2.9328   2.9563   2.9574
     2.9985   3.0972   3.1020   3.1056   3.1553   3.1594   3.1612   3.1653
     3.2218   3.2299   3.2331   3.2343   3.3363   3.3464   3.3486   3.3496
     3.3709   3.3771   3.4125

     occupation numbers 
     1.0000   1.0000   1.0000   1.0000   1.0000   1.0000   1.0000   1.0000
[...]
     atom   15 type  1   force =    -0.00000183    0.00000760   -0.00001277
     atom   16 type  1   force =    -0.00001470    0.00001493   -0.00001244
     atom   17 type  1   force =    -0.00002339    0.00000696    0.00002031
     atom   18 type  1   force =     0.00002234   -0.00002039    0.00002548
     atom   19 type  1   force =     0.00000929   -0.00003690    0.00000000
     atom   20 type  1   force =    -0.00001347   -0.00001727   -0.00000000
     atom   21 type  1   force =    -0.00000890   -0.00001134    0.00000747
     atom   22 type  1   force =     0.00002234   -0.00002038   -0.00002548
     atom   23 type  1   force =    -0.00002338    0.00000697   -0.00002031
     atom   24 type  1   force =    -0.00000890   -0.00001134   -0.00000746
     atom   25 type  1   force =    -0.00002138   -0.00003122    0.00000000
     atom   26 type  1   force =    -0.00000294   -0.00000532    0.00004235
     atom   27 type  1   force =    -0.00000727    0.00001375    0.00004365
     atom   28 type  1   force =     0.00000914   -0.00002422    0.00002622
     atom   29 type  1   force =    -0.00000215   -0.00000190    0.00003485
     atom   30 type  1   force =    -0.00001712   -0.00000655   -0.00000000
     atom   31 type  1   force =    -0.00003541   -0.00001120   -0.00000000
     atom   32 type  1   force =    -0.00001119    0.00000142    0.00002224
     atom   33 type  1   force =    -0.00000215   -0.00000189   -0.00003485
     atom   34 type  1   force =    -0.00000294   -0.00000533   -0.00004235
     atom   35 type  1   force =    -0.00000727    0.00001375   -0.00004365
     atom   36 type  1   force =    -0.00001119    0.00000142   -0.00002225
     atom   37 type  1   force =     0.00000914   -0.00002422   -0.00002622
     atom   38 type  1   force =    -0.00000802   -0.00000202    0.00002038
     atom   39 type  1   force =    -0.00000235   -0.00000274    0.00005691
     atom   40 type  1   force =    -0.00000436    0.00001478    0.00005060
     atom   41 type  1   force =     0.00002165    0.00001683    0.00003494
     atom   42 type  1   force =     0.00001383   -0.00000243    0.00002198
     atom   43 type  1   force =    -0.00000256   -0.00001526   -0.00000000
     atom   44 type  1   force =    -0.00001218    0.00000140   -0.00000001
     atom   45 type  1   force =    -0.00000612   -0.00000771    0.00001428
     atom   46 type  1   force =     0.00001383   -0.00000243   -0.00002199
     atom   47 type  1   force =    -0.00000235   -0.00000273   -0.00005691
     atom   48 type  1   force =    -0.00000436    0.00001478   -0.00005060
     atom   49 type  1   force =    -0.00000613   -0.00000771   -0.00001428
     atom   50 type  1   force =    -0.00000802   -0.00000202   -0.00002038
     atom   51 type  1   force =     0.00002165    0.00001684   -0.00003494
     atom   52 type  1   force =    -0.00000086    0.00002023    0.00003977
     atom   53 type  1   force =     0.00000453   -0.00000472    0.00001727
     atom   54 type  1   force =     0.00000508   -0.00000155    0.00002488
     atom   55 type  1   force =     0.00001987    0.00002831    0.00003790
     atom   56 type  1   force =    -0.00000088   -0.00001936    0.00001561
     atom   57 type  1   force =     0.00000605   -0.00001161   -0.00000000
     atom   58 type  1   force =     0.00000458   -0.00001328   -0.00000001
     atom   59 type  1   force =     0.00000720   -0.00000936    0.00000268
     atom   60 type  1   force =    -0.00000088   -0.00001935   -0.00001562
     atom   61 type  1   force =     0.00000452   -0.00000471   -0.00001727
     atom   62 type  1   force =     0.00000508   -0.00000155   -0.00002488
     atom   63 type  1   force =     0.00000720   -0.00000936   -0.00000269
     atom   64 type  1   force =    -0.00000086    0.00002024   -0.00003972
     atom   65 type  1   force =     0.00001986    0.00002832   -0.00003788
     atom   66 type  1   force =     0.00001850   -0.00001084    0.00001668
     atom   67 type  1   force =     0.00000527   -0.00001034   -0.00000059
     atom   68 type  1   force =     0.00000635   -0.00000844   -0.00000000
     atom   69 type  1   force =     0.00000526   -0.00001034    0.00000059
     atom   70 type  1   force =     0.00001849   -0.00001084   -0.00001668
     atom   71 type  1   force =     0.00000812   -0.00000597    0.00001630
     atom   72 type  1   force =    -0.00002047    0.00000760    0.00001176
     atom   73 type  1   force =    -0.00002464    0.00001095   -0.00000000
     atom   74 type  1   force =    -0.00001986    0.00000310    0.00000000
     atom   75 type  1   force =    -0.00000590    0.00000950    0.00000427
     atom   76 type  1   force =    -0.00002046    0.00000760   -0.00001176
     atom   77 type  1   force =     0.00000813   -0.00000597   -0.00001630
     atom   78 type  1   force =    -0.00000589    0.00000950   -0.00000428
     atom   79 type  1   force =     0.00003233    0.00000200    0.00004225
     atom   80 type  1   force =    -0.00000175    0.00000021    0.00002500
     atom   81 type  1   force =    -0.00000469    0.00001570    0.00002076
     atom   82 type  1   force =     0.00002296    0.00000643    0.00003931
     atom   83 type  1   force =    -0.00001710    0.00001489    0.00001735
     atom   84 type  1   force =    -0.00000443    0.00000345   -0.00000000
     atom   85 type  1   force =    -0.00001422    0.00000659   -0.00000000
     atom   86 type  1   force =    -0.00001559   -0.00000010    0.00000021
     atom   87 type  1   force =    -0.00001710    0.00001488   -0.00001735
     atom   88 type  1   force =    -0.00000174    0.00000022   -0.00002500
     atom   89 type  1   force =    -0.00000468    0.00001569   -0.00002077
     atom   90 type  1   force =    -0.00001558   -0.00000010   -0.00000021
     atom   91 type  1   force =     0.00003234    0.00000200   -0.00004224
     atom   92 type  1   force =     0.00002297    0.00000643   -0.00003930
     atom   93 type  1   force =     0.00002658    0.00002493    0.00003740
     atom   94 type  1   force =     0.00000049   -0.00000501    0.00001701
     atom   95 type  1   force =    -0.00001363   -0.00000538    0.00001728
     atom   96 type  1   force =    -0.00000818   -0.00000795    0.00000844
     atom   97 type  1   force =    -0.00000371   -0.00000483    0.00000000
     atom   98 type  1   force =    -0.00002086   -0.00000594    0.00000000
     atom   99 type  1   force =    -0.00001542   -0.00000602   -0.00000774
     atom  100 type  1   force =    -0.00000817   -0.00000795   -0.00000844
     atom  101 type  1   force =     0.00000050   -0.00000501   -0.00001702
     atom  102 type  1   force =    -0.00001362   -0.00000538   -0.00001728
     atom  103 type  1   force =    -0.00001542   -0.00000602    0.00000774
     atom  104 type  1   force =     0.00002659    0.00002494   -0.00003740
     atom  105 type  1   force =    -0.00000580   -0.00002116   -0.00000009
     atom  106 type  1   force =    -0.00000876   -0.00001160    0.00000000
     atom  107 type  1   force =    -0.00000580   -0.00002117    0.00000009
     atom  108 type  1   force =    -0.00001911    0.00000388    0.00000000
     atom  109 type  1   force =    -0.00002507    0.00000240    0.00000425
     atom  110 type  1   force =    -0.00002661    0.00000221   -0.00000254
     atom  111 type  1   force =    -0.00001865   -0.00000413    0.00000001
     atom  112 type  1   force =    -0.00002661    0.00000221    0.00000254
     atom  113 type  1   force =    -0.00002507    0.00000240   -0.00000424
     atom  114 type  1   force =    -0.00001913    0.00000274   -0.00001064
     atom  115 type  1   force =    -0.00001833    0.00000197    0.00000001
     atom  116 type  1   force =    -0.00001911    0.00000274    0.00001065
     atom  117 type  2   force =     0.00000436   -0.00000021   -0.00000000

     Total force =     0.003952     Total SCF correction =     0.000361
     Energy error            =      3.5E-05 Ry
     Gradient error          =      9.6E-04 Ry/Bohr

     bfgs converged in  18 scf cycles and  17 bfgs steps
     (criteria: energy <  1.0E-04 Ry, force <  1.0E-03 Ry/Bohr)

     End of BFGS Geometry Optimization

     Final energy             =  -24449.0237050764 Ry

     File ./out/calc.bfgs deleted, as requested
Begin final coordinates

ATOMIC_POSITIONS (angstrom)
Pt              -5.8692643722       -3.8898419878        0.0000000000
Pt              -3.8601964098       -5.8127284373        0.0000000000
Pt              -4.0635069564       -4.0560465074       -2.1044996595
Pt              -4.0635069564       -4.0560465074        2.1044996595
Pt              -5.7830463805        0.0007560788       -3.8249260595
Pt              -4.0506017172       -2.1232705556       -4.0249424798
Pt              -3.8455471577       -0.0055261983       -5.7781355791
Pt              -5.8487420280       -1.9594921141       -1.9299125000
Pt              -5.9339652701        0.0123530871        0.0000000000
Pt              -3.9166188868       -2.0106504583        0.0000000000
Pt              -3.8815574628       -0.0069604243       -1.9354248422
Pt              -5.8487420280       -1.9594921141        1.9299125000
Pt              -5.7830463805        0.0007560788        3.8249260595
Pt              -4.0506017172       -2.1232705556        4.0249424798
Pt              -3.8815574628       -0.0069604243        1.9354248422
Pt              -3.8455471577       -0.0055261983        5.7781355791
Pt              -4.0545985406        2.1225479062       -4.0446505695
Pt              -5.8370084420        1.9562199539       -1.9468120647
Pt              -5.7987453047        3.8526565700        0.0000000000
Pt              -3.8789440137        1.9858378562        0.0000000000
Pt              -4.0551577670        4.0569418898       -2.1223687036
Pt              -5.8370084420        1.9562199539        1.9468120647
Pt              -4.0545985406        2.1225479062        4.0446505695
Pt              -4.0551577670        4.0569418898        2.1223687036
Pt              -3.8392252434        5.7878115825        0.0000000000
Pt              -2.1220811286       -4.0464941797       -4.0244804730
Pt              -0.0039650974       -5.7907453168       -3.8323800814
Pt              -0.0080356518       -3.8384683891       -5.7774112587
Pt              -1.9594280981       -5.8418308501       -1.9393458560
Pt              -1.9762576149       -3.8922786883        0.0000000000
Pt               0.0048750351       -5.9207491599        0.0000000000
Pt              -0.0008074799       -3.8770660226       -1.9626344011
Pt              -1.9594280981       -5.8418308501        1.9393458560
Pt              -2.1220811286       -4.0464941797        4.0244804730
Pt              -0.0039650974       -5.7907453168        3.8323800814
Pt              -0.0008074799       -3.8770660226        1.9626344011
Pt              -0.0080356518       -3.8384683891        5.7774112587
Pt              -1.9611885223       -1.9549657773       -5.8223696695
Pt              -1.9782064136       -0.0044461208       -3.8589991437
Pt              -0.0038121622       -1.9674871421       -3.8684017597
Pt              -0.0073075245       -0.0067049404       -5.9092559480
Pt              -2.0366662742       -2.0246749477       -1.9959303302
Pt              -1.9344994180        0.0409436940        0.0000000000
Pt               0.0067482712       -1.9584564369        0.0000000000
Pt               0.0105417846        0.0055424671       -1.9625150722
Pt              -2.0366662742       -2.0246749477        1.9959303302
Pt              -1.9782064136       -0.0044461208        3.8589991437
Pt              -0.0038121622       -1.9674871421        3.8684017597
Pt               0.0105417846        0.0055424671        1.9625150722
Pt              -1.9611885223       -1.9549657773        5.8223696695
Pt              -0.0073075245       -0.0067049404        5.9092559480
Pt              -1.9541400414        1.9450711448       -5.8297474392
Pt              -2.1268986841        4.0512017893       -4.0490515177
Pt              -0.0024473139        1.9653486473       -3.8773592247
Pt              -0.0032870760        3.8383007609       -5.7851542231
Pt              -2.0325401924        2.0386367735       -2.0320287143
Pt              -1.9567653114        3.8823296678        0.0000000000
Pt               0.0286248124        1.9835410514        0.0000000000
Pt               0.0074884118        3.8809966210       -1.9796539214
Pt              -2.0325401924        2.0386367735        2.0320287143
Pt              -2.1268986841        4.0512017893        4.0490515177
Pt              -0.0024473139        1.9653486473        3.8773592247
Pt               0.0074884118        3.8809966210        1.9796539214
Pt              -1.9541400414        1.9450711448        5.8297474392
Pt              -0.0032870760        3.8383007609        5.7851542231
Pt              -0.0012445586        5.7930094913       -3.8445115680
Pt              -1.9486807573        5.8368625350       -1.9506927790
Pt               0.0073050059        5.9149847605        0.0000000000
Pt              -1.9486807573        5.8368625350        1.9506927790
Pt              -0.0012445586        5.7930094913        3.8445115680
Pt               2.1215370967       -4.0508246359       -4.0518249007
Pt               1.9533759168       -5.8351345396       -1.9531505718
Pt               1.9740561237       -3.8756679935        0.0000000000
Pt               3.8421455485       -5.7869632422        0.0000000000
Pt               4.0540611536       -4.0535608593       -2.1283086910
Pt               1.9533759168       -5.8351345396        1.9531505718
Pt               2.1215370967       -4.0508246359        4.0518249007
Pt               4.0540611536       -4.0535608593        2.1283086910
Pt               1.9516829709       -1.9521791790       -5.8351452721
Pt               1.9726794080       -0.0020914796       -3.8807636367
Pt               4.0569156174       -2.1277076917       -4.0567342037
Pt               3.8444635612       -0.0004049645       -5.7891781983
Pt               2.0372121418       -2.0322835932       -2.0346139577
Pt               1.9709243894        0.0014761309        0.0000000000
Pt               3.8813335801       -1.9686240040        0.0000000000
Pt               3.8812898981       -0.0008225532       -1.9740428551
Pt               2.0372121418       -2.0322835932        2.0346139577
Pt               1.9726794080       -0.0020914796        3.8807636367
Pt               4.0569156174       -2.1277076917        4.0567342037
Pt               3.8812898981       -0.0008225532        1.9740428551
Pt               1.9516829709       -1.9521791790        5.8351452721
Pt               3.8444635612       -0.0004049645        5.7891781983
Pt               1.9475698466        1.9471757585       -5.8345256026
Pt               2.1245586277        4.0569842989       -4.0599639772
Pt               4.0548601821        2.1284443676       -4.0588676546
Pt               2.0426032866        2.0364636623       -2.0420568806
Pt               1.9780699898        3.8799178748        0.0000000000
Pt               3.8765443685        1.9690235044        0.0000000000
Pt               4.0568159484        4.0588208975       -2.1338702809
Pt               2.0426032866        2.0364636623        2.0420568806
Pt               2.1245586277        4.0569842989        4.0599639772
Pt               4.0548601821        2.1284443676        4.0588676546
Pt               4.0568159484        4.0588208975        2.1338702809
Pt               1.9475698466        1.9471757585        5.8345256026
Pt               1.9538924490        5.8401664880       -1.9549317419
Pt               3.8351327500        5.7857780312        0.0000000000
Pt               1.9538924490        5.8401664880        1.9549317419
Pt               5.7876854712       -3.8428444935        0.0000000000
Pt               5.7926722039        0.0001268267       -3.8427993935
Pt               5.8375335229       -1.9542096366       -1.9538993257
Pt               5.9157651664       -0.0025911654        0.0000000000
Pt               5.8375335229       -1.9542096366        1.9538993257
Pt               5.7926722039        0.0001268267        3.8427993935
Pt               5.8325482332        1.9505135671       -1.9497118882
Pt               5.7806286218        3.8449223158        0.0000000000
Pt               5.8325482332        1.9505135671        1.9497118882
H               -7.1497292389       -4.8099155385        0.0000000000
End final coordinates



     Writing all to output data dir ./out/calc.save/ :
     XML data file, charge density, pseudopotentials, collected wavefunctions
 
     init_run     :     96.80s CPU    101.43s WALL (       1 calls)
     electrons    : 844180.65s CPU 854564.30s WALL (      18 calls)
     update_pot   :    128.31s CPU    143.27s WALL (      17 calls)
     forces       :    821.04s CPU    877.39s WALL (      18 calls)

     Called by init_run:
     wfcinit      :     74.55s CPU     77.57s WALL (       1 calls)
     wfcinit:atom :      0.28s CPU      0.45s WALL (       2 calls)
     wfcinit:wfcr :     72.41s CPU     75.04s WALL (       2 calls)
     potinit      :      8.70s CPU      9.73s WALL (       1 calls)
     hinit0       :      5.16s CPU      5.24s WALL (       1 calls)

     Called by electrons:
     c_bands      : 830771.12s CPU 840260.98s WALL (     291 calls)
     sum_band     :   9413.23s CPU   9783.71s WALL (     291 calls)
     v_of_rho     :   2086.52s CPU   2336.49s WALL (     296 calls)
     v_h          :     31.08s CPU     33.48s WALL (     296 calls)
     v_xc         :   2182.47s CPU   2446.96s WALL (     314 calls)
     newd         :    952.08s CPU   1073.06s WALL (     296 calls)
     mix_rho      :   1071.94s CPU   1169.84s WALL (     291 calls)

     Called by c_bands:
     init_us_2    :    374.18s CPU    377.84s WALL (    1202 calls)
     rcgdiagg     : 814210.29s CPU 823134.45s WALL (     636 calls)
     wfcrot       :  16320.29s CPU  16883.84s WALL (     576 calls)

     Called by sum_band:
     sum_band:wei :      0.93s CPU      0.94s WALL (     291 calls)
     sum_band:loo :   8072.22s CPU   8329.06s WALL (     291 calls)
     sum_band:buf :     64.21s CPU     64.97s WALL (     582 calls)
     sum_band:ini :    180.86s CPU    182.52s WALL (     582 calls)
     sum_band:cal :   1962.58s CPU   1974.88s WALL (     582 calls)
     sum_band:bec :      5.84s CPU      5.88s WALL (     582 calls)
     addusdens    :   1295.35s CPU   1402.88s WALL (     291 calls)
                                        0.00s GPU  (     291 calls)
     addusd:skk   :     51.71s CPU     90.70s WALL (     582 calls)
                                        0.00s GPU  (     582 calls)

     Called by *cgdiagg:
     h_psi        : 339288.82s CPU 345029.69s WALL ( 2040368 calls)
     s_psi        : 272520.36s CPU 274512.84s WALL ( 4080160 calls)

     Called by h_psi:
     h_psi:calbec : 143301.61s CPU 144458.89s WALL ( 2040368 calls)
     vloc_psi     :  56967.06s CPU  60541.16s WALL ( 2040368 calls)
     add_vuspsi   : 138825.93s CPU 139841.16s WALL ( 2040368 calls)
     hs_1psi      : 461456.42s CPU 467678.43s WALL ( 2039792 calls)
     s_1psi       : 278158.84s CPU 280274.89s WALL ( 2039792 calls)

     General routines
     calbec       : 286906.03s CPU 289198.06s WALL ( 4080886 calls)
     fft          :   1240.47s CPU   1421.56s WALL (   21292 calls)
     ffts         :    513.09s CPU    604.25s WALL (   32863 calls)
     fftw         :  32626.89s CPU  36101.56s WALL ( 5047712 calls)
     interpolate  :     50.84s CPU     58.37s WALL (     592 calls)
 
     Parallel routines
 
     PWSCF        :   9d18h49m CPU   9d21h46m WALL

 
   This run was terminated on:  14:15: 2  24May2025            

=------------------------------------------------------------------------------=
   JOB DONE.
=------------------------------------------------------------------------------=
