
     Program PWSCF v.7.3.1 starts on 22Jan2025 at  7:40:49 

     This program is part of the open-source Quantum ESPRESSO suite
     for quantum simulation of materials; please cite
         "P. Giannozzi et al., J. Phys.:Condens. Matter 21 395502 (2009);
         "P. Giannozzi et al., J. Phys.:Condens. Matter 29 465901 (2017);
         "P. Giannozzi et al., J. Chem. Phys. 152 154105 (2020);
          URL http://www.quantum-espresso.org", 
     in publications or presentations arising from this work. More details at
     http://www.quantum-espresso.org/quote

     Parallel version (MPI), running on    36 processors

     MPI processes distributed on     1 nodes
     180206 MiB available memory on the printing compute node when the environment starts
 
     Reading input from espresso.pwi
Warning: card   &CELL ignored
Warning: card      CELL_DOFREE = 'IBRAV' ignored
Warning: card / ignored

     Current dimensions of program PWSCF are:
     Max number of different atomic species (ntypx) = 10
     Max number of k-points (npk) =  40000
     Max angular momentum in pseudopotentials (lmaxx) =  4
     Message from routine iosys:
     restart disabled: needed files not found

     IMPORTANT: XC functional enforced from input :
     Exchange-correlation= RVV10
                           (   1   4  13   4  26   0   0)
     Any further DFT definition will be discarded
     Please, verify this is what you really want


     Atomic positions and unit cell read from directory:
     ./out/calc.save/
     Message from routine qexsd_readschema :
     xml data file ./out/calc.save/data-file-schema.xml not found
     Nothing found: using input atomic positions and unit cell


     gamma-point specific algorithms are used
     Message from routine setup:
     using ibrav=0 with symmetry is DISCOURAGED, use correct ibrav instead
 
     R & G space division:  proc/nbgrp/npool/nimage =      36
     Subspace diagonalization in iterative solution of the eigenvalue problem:
     one sub-group per band group will be used
     scalapack distributed-memory algorithm (size of sub-group:  5*  5 procs)

 
     Parallelization info
     --------------------
     sticks:   dense  smooth     PW     G-vecs:    dense   smooth      PW
     Min        1227     612    151               194140    68620    8576
     Max        1230     614    154               194152    68634    8590
     Sum       44213   22097   5513              6989249  2470567  308947
 
     Using Slab Decomposition
 

     Title: 
     calc                                                                       


     bravais-lattice index     =            0
     lattice parameter (alat)  =      34.0151  a.u.
     unit-cell volume          =   39356.2868 (a.u.)^3
     number of atoms/cell      =           55
     number of atomic types    =            1
     number of electrons       =       880.00
     number of Kohn-Sham states=          528
     kinetic-energy cutoff     =      60.0000  Ry
     charge density cutoff     =     480.0000  Ry
     scf convergence threshold =      1.0E-06
     mixing beta               =       0.2000
     number of iterations used =            8  plain     mixing
     energy convergence thresh.=      1.0E-04
     force convergence thresh. =      1.0E-03
     Exchange-correlation= RVV10
                           (   1   4  13   4  26   0   0)
     nstep                     =        10000


     celldm(1)=  34.015070  celldm(2)=   0.000000  celldm(3)=   0.000000
     celldm(4)=   0.000000  celldm(5)=   0.000000  celldm(6)=   0.000000

     crystal axes: (cart. coord. in units of alat)
               a(1) = (   1.000000   0.000000   0.000000 )  
               a(2) = (   0.000000   1.000000   0.000000 )  
               a(3) = (   0.000000   0.000000   1.000000 )  

     reciprocal axes: (cart. coord. in units 2 pi/alat)
               b(1) = (  1.000000  0.000000  0.000000 )  
               b(2) = (  0.000000  1.000000  0.000000 )  
               b(3) = (  0.000000  0.000000  1.000000 )  


     PseudoPot. # 1 for Pt read from file:
     /home/james/work/espresso/SSSP_1.3.0_PBE_efficiency/pt_pbe_v1.4.uspp.F.UPF
     MD5 check sum: f09d6de1a584b5a045c4fc126da2d0c4
     Pseudo is Ultrasoft + core correction, Zval = 16.0
     Generated by new atomic code, or converted to UPF format
     Using radial grid of  985 points,  6 beta functions with: 
                l(1) =   0
                l(2) =   0
                l(3) =   1
                l(4) =   1
                l(5) =   2
                l(6) =   2
     Q(r) pseudized with  8 coefficients,  rinner =    1.300   1.300   1.300
                                                       1.300   1.300

     atomic species   valence    mass     pseudopotential
     Pt               16.00   195.08400     Pt( 1.00)

     Starting magnetic structure 
     atomic species   magnetization
     Pt              0.010

     48 Sym. Ops., with inversion, found


                                    s                        frac. trans.

      isym =  1     identity                                     

 cryst.   s( 1) = (     1          0          0      )
                  (     0          1          0      )
                  (     0          0          1      )

 cart.    s( 1) = (  1.0000000  0.0000000  0.0000000 )
                  (  0.0000000  1.0000000  0.0000000 )
                  (  0.0000000  0.0000000  1.0000000 )


      isym =  2     180 deg rotation - cart. axis [0,0,1]        

 cryst.   s( 2) = (    -1          0          0      )
                  (     0         -1          0      )
                  (     0          0          1      )

 cart.    s( 2) = ( -1.0000000  0.0000000  0.0000000 )
                  (  0.0000000 -1.0000000  0.0000000 )
                  (  0.0000000  0.0000000  1.0000000 )


      isym =  3     180 deg rotation - cart. axis [0,1,0]        

 cryst.   s( 3) = (    -1          0          0      )
                  (     0          1          0      )
                  (     0          0         -1      )

 cart.    s( 3) = ( -1.0000000  0.0000000  0.0000000 )
                  (  0.0000000  1.0000000  0.0000000 )
                  (  0.0000000  0.0000000 -1.0000000 )


      isym =  4     180 deg rotation - cart. axis [1,0,0]        

 cryst.   s( 4) = (     1          0          0      )
                  (     0         -1          0      )
                  (     0          0         -1      )

 cart.    s( 4) = (  1.0000000  0.0000000  0.0000000 )
                  (  0.0000000 -1.0000000  0.0000000 )
                  (  0.0000000  0.0000000 -1.0000000 )


      isym =  5     180 deg rotation - cart. axis [1,1,0]        

 cryst.   s( 5) = (     0          1          0      )
                  (     1          0          0      )
                  (     0          0         -1      )

 cart.    s( 5) = (  0.0000000  1.0000000  0.0000000 )
                  (  1.0000000  0.0000000  0.0000000 )
                  (  0.0000000  0.0000000 -1.0000000 )


      isym =  6     180 deg rotation - cart. axis [1,-1,0]       

 cryst.   s( 6) = (     0         -1          0      )
                  (    -1          0          0      )
                  (     0          0         -1      )

 cart.    s( 6) = (  0.0000000 -1.0000000  0.0000000 )
                  ( -1.0000000  0.0000000  0.0000000 )
                  (  0.0000000  0.0000000 -1.0000000 )


      isym =  7      90 deg rotation - cart. axis [0,0,-1]       

 cryst.   s( 7) = (     0         -1          0      )
                  (     1          0          0      )
                  (     0          0          1      )

 cart.    s( 7) = (  0.0000000  1.0000000  0.0000000 )
                  ( -1.0000000  0.0000000  0.0000000 )
                  (  0.0000000  0.0000000  1.0000000 )


      isym =  8      90 deg rotation - cart. axis [0,0,1]        

 cryst.   s( 8) = (     0          1          0      )
                  (    -1          0          0      )
                  (     0          0          1      )

 cart.    s( 8) = (  0.0000000 -1.0000000  0.0000000 )
                  (  1.0000000  0.0000000  0.0000000 )
                  (  0.0000000  0.0000000  1.0000000 )


      isym =  9     180 deg rotation - cart. axis [1,0,1]        

 cryst.   s( 9) = (     0          0          1      )
                  (     0         -1          0      )
                  (     1          0          0      )

 cart.    s( 9) = (  0.0000000  0.0000000  1.0000000 )
                  (  0.0000000 -1.0000000  0.0000000 )
                  (  1.0000000  0.0000000  0.0000000 )


      isym = 10     180 deg rotation - cart. axis [-1,0,1]       

 cryst.   s(10) = (     0          0         -1      )
                  (     0         -1          0      )
                  (    -1          0          0      )

 cart.    s(10) = (  0.0000000  0.0000000 -1.0000000 )
                  (  0.0000000 -1.0000000  0.0000000 )
                  ( -1.0000000  0.0000000  0.0000000 )


      isym = 11      90 deg rotation - cart. axis [0,1,0]        

 cryst.   s(11) = (     0          0         -1      )
                  (     0          1          0      )
                  (     1          0          0      )

 cart.    s(11) = (  0.0000000  0.0000000  1.0000000 )
                  (  0.0000000  1.0000000  0.0000000 )
                  ( -1.0000000  0.0000000  0.0000000 )


      isym = 12      90 deg rotation - cart. axis [0,-1,0]       

 cryst.   s(12) = (     0          0          1      )
                  (     0          1          0      )
                  (    -1          0          0      )

 cart.    s(12) = (  0.0000000  0.0000000 -1.0000000 )
                  (  0.0000000  1.0000000  0.0000000 )
                  (  1.0000000  0.0000000  0.0000000 )


      isym = 13     180 deg rotation - cart. axis [0,1,1]        

 cryst.   s(13) = (    -1          0          0      )
                  (     0          0          1      )
                  (     0          1          0      )

 cart.    s(13) = ( -1.0000000  0.0000000  0.0000000 )
                  (  0.0000000  0.0000000  1.0000000 )
                  (  0.0000000  1.0000000  0.0000000 )


      isym = 14     180 deg rotation - cart. axis [0,1,-1]       

 cryst.   s(14) = (    -1          0          0      )
                  (     0          0         -1      )
                  (     0         -1          0      )

 cart.    s(14) = ( -1.0000000  0.0000000  0.0000000 )
                  (  0.0000000  0.0000000 -1.0000000 )
                  (  0.0000000 -1.0000000  0.0000000 )


      isym = 15      90 deg rotation - cart. axis [-1,0,0]       

 cryst.   s(15) = (     1          0          0      )
                  (     0          0         -1      )
                  (     0          1          0      )

 cart.    s(15) = (  1.0000000  0.0000000  0.0000000 )
                  (  0.0000000  0.0000000  1.0000000 )
                  (  0.0000000 -1.0000000  0.0000000 )


      isym = 16      90 deg rotation - cart. axis [1,0,0]        

 cryst.   s(16) = (     1          0          0      )
                  (     0          0          1      )
                  (     0         -1          0      )

 cart.    s(16) = (  1.0000000  0.0000000  0.0000000 )
                  (  0.0000000  0.0000000 -1.0000000 )
                  (  0.0000000  1.0000000  0.0000000 )


      isym = 17     120 deg rotation - cart. axis [-1,-1,-1]     

 cryst.   s(17) = (     0          0          1      )
                  (     1          0          0      )
                  (     0          1          0      )

 cart.    s(17) = (  0.0000000  1.0000000  0.0000000 )
                  (  0.0000000  0.0000000  1.0000000 )
                  (  1.0000000  0.0000000  0.0000000 )


      isym = 18     120 deg rotation - cart. axis [-1,1,1]       

 cryst.   s(18) = (     0          0         -1      )
                  (    -1          0          0      )
                  (     0          1          0      )

 cart.    s(18) = (  0.0000000 -1.0000000  0.0000000 )
                  (  0.0000000  0.0000000  1.0000000 )
                  ( -1.0000000  0.0000000  0.0000000 )


      isym = 19     120 deg rotation - cart. axis [1,1,-1]       

 cryst.   s(19) = (     0          0         -1      )
                  (     1          0          0      )
                  (     0         -1          0      )

 cart.    s(19) = (  0.0000000  1.0000000  0.0000000 )
                  (  0.0000000  0.0000000 -1.0000000 )
                  ( -1.0000000  0.0000000  0.0000000 )


      isym = 20     120 deg rotation - cart. axis [1,-1,1]       

 cryst.   s(20) = (     0          0          1      )
                  (    -1          0          0      )
                  (     0         -1          0      )

 cart.    s(20) = (  0.0000000 -1.0000000  0.0000000 )
                  (  0.0000000  0.0000000 -1.0000000 )
                  (  1.0000000  0.0000000  0.0000000 )


      isym = 21     120 deg rotation - cart. axis [1,1,1]        

 cryst.   s(21) = (     0          1          0      )
                  (     0          0          1      )
                  (     1          0          0      )

 cart.    s(21) = (  0.0000000  0.0000000  1.0000000 )
                  (  1.0000000  0.0000000  0.0000000 )
                  (  0.0000000  1.0000000  0.0000000 )


      isym = 22     120 deg rotation - cart. axis [-1,1,-1]      

 cryst.   s(22) = (     0         -1          0      )
                  (     0          0         -1      )
                  (     1          0          0      )

 cart.    s(22) = (  0.0000000  0.0000000  1.0000000 )
                  ( -1.0000000  0.0000000  0.0000000 )
                  (  0.0000000 -1.0000000  0.0000000 )


      isym = 23     120 deg rotation - cart. axis [1,-1,-1]      

 cryst.   s(23) = (     0         -1          0      )
                  (     0          0          1      )
                  (    -1          0          0      )

 cart.    s(23) = (  0.0000000  0.0000000 -1.0000000 )
                  ( -1.0000000  0.0000000  0.0000000 )
                  (  0.0000000  1.0000000  0.0000000 )


      isym = 24     120 deg rotation - cart. axis [-1,-1,1]      

 cryst.   s(24) = (     0          1          0      )
                  (     0          0         -1      )
                  (    -1          0          0      )

 cart.    s(24) = (  0.0000000  0.0000000 -1.0000000 )
                  (  1.0000000  0.0000000  0.0000000 )
                  (  0.0000000 -1.0000000  0.0000000 )


      isym = 25     inversion                                    

 cryst.   s(25) = (    -1          0          0      )
                  (     0         -1          0      )
                  (     0          0         -1      )

 cart.    s(25) = ( -1.0000000  0.0000000  0.0000000 )
                  (  0.0000000 -1.0000000  0.0000000 )
                  (  0.0000000  0.0000000 -1.0000000 )


      isym = 26     inv. 180 deg rotation - cart. axis [0,0,1]   

 cryst.   s(26) = (     1          0          0      )
                  (     0          1          0      )
                  (     0          0         -1      )

 cart.    s(26) = (  1.0000000  0.0000000  0.0000000 )
                  (  0.0000000  1.0000000  0.0000000 )
                  (  0.0000000  0.0000000 -1.0000000 )


      isym = 27     inv. 180 deg rotation - cart. axis [0,1,0]   

 cryst.   s(27) = (     1          0          0      )
                  (     0         -1          0      )
                  (     0          0          1      )

 cart.    s(27) = (  1.0000000  0.0000000  0.0000000 )
                  (  0.0000000 -1.0000000  0.0000000 )
                  (  0.0000000  0.0000000  1.0000000 )


      isym = 28     inv. 180 deg rotation - cart. axis [1,0,0]   

 cryst.   s(28) = (    -1          0          0      )
                  (     0          1          0      )
                  (     0          0          1      )

 cart.    s(28) = ( -1.0000000  0.0000000  0.0000000 )
                  (  0.0000000  1.0000000  0.0000000 )
                  (  0.0000000  0.0000000  1.0000000 )


      isym = 29     inv. 180 deg rotation - cart. axis [1,1,0]   

 cryst.   s(29) = (     0         -1          0      )
                  (    -1          0          0      )
                  (     0          0          1      )

 cart.    s(29) = (  0.0000000 -1.0000000  0.0000000 )
                  ( -1.0000000  0.0000000  0.0000000 )
                  (  0.0000000  0.0000000  1.0000000 )


      isym = 30     inv. 180 deg rotation - cart. axis [1,-1,0]  

 cryst.   s(30) = (     0          1          0      )
                  (     1          0          0      )
                  (     0          0          1      )

 cart.    s(30) = (  0.0000000  1.0000000  0.0000000 )
                  (  1.0000000  0.0000000  0.0000000 )
                  (  0.0000000  0.0000000  1.0000000 )


      isym = 31     inv.  90 deg rotation - cart. axis [0,0,-1]  

 cryst.   s(31) = (     0          1          0      )
                  (    -1          0          0      )
                  (     0          0         -1      )

 cart.    s(31) = (  0.0000000 -1.0000000  0.0000000 )
                  (  1.0000000  0.0000000  0.0000000 )
                  (  0.0000000  0.0000000 -1.0000000 )


      isym = 32     inv.  90 deg rotation - cart. axis [0,0,1]   

 cryst.   s(32) = (     0         -1          0      )
                  (     1          0          0      )
                  (     0          0         -1      )

 cart.    s(32) = (  0.0000000  1.0000000  0.0000000 )
                  ( -1.0000000  0.0000000  0.0000000 )
                  (  0.0000000  0.0000000 -1.0000000 )


      isym = 33     inv. 180 deg rotation - cart. axis [1,0,1]   

 cryst.   s(33) = (     0          0         -1      )
                  (     0          1          0      )
                  (    -1          0          0      )

 cart.    s(33) = (  0.0000000  0.0000000 -1.0000000 )
                  (  0.0000000  1.0000000  0.0000000 )
                  ( -1.0000000  0.0000000  0.0000000 )


      isym = 34     inv. 180 deg rotation - cart. axis [-1,0,1]  

 cryst.   s(34) = (     0          0          1      )
                  (     0          1          0      )
                  (     1          0          0      )

 cart.    s(34) = (  0.0000000  0.0000000  1.0000000 )
                  (  0.0000000  1.0000000  0.0000000 )
                  (  1.0000000  0.0000000  0.0000000 )


      isym = 35     inv.  90 deg rotation - cart. axis [0,1,0]   

 cryst.   s(35) = (     0          0          1      )
                  (     0         -1          0      )
                  (    -1          0          0      )

 cart.    s(35) = (  0.0000000  0.0000000 -1.0000000 )
                  (  0.0000000 -1.0000000  0.0000000 )
                  (  1.0000000  0.0000000  0.0000000 )


      isym = 36     inv.  90 deg rotation - cart. axis [0,-1,0]  

 cryst.   s(36) = (     0          0         -1      )
                  (     0         -1          0      )
                  (     1          0          0      )

 cart.    s(36) = (  0.0000000  0.0000000  1.0000000 )
                  (  0.0000000 -1.0000000  0.0000000 )
                  ( -1.0000000  0.0000000  0.0000000 )


      isym = 37     inv. 180 deg rotation - cart. axis [0,1,1]   

 cryst.   s(37) = (     1          0          0      )
                  (     0          0         -1      )
                  (     0         -1          0      )

 cart.    s(37) = (  1.0000000  0.0000000  0.0000000 )
                  (  0.0000000  0.0000000 -1.0000000 )
                  (  0.0000000 -1.0000000  0.0000000 )


      isym = 38     inv. 180 deg rotation - cart. axis [0,1,-1]  

 cryst.   s(38) = (     1          0          0      )
                  (     0          0          1      )
                  (     0          1          0      )

 cart.    s(38) = (  1.0000000  0.0000000  0.0000000 )
                  (  0.0000000  0.0000000  1.0000000 )
                  (  0.0000000  1.0000000  0.0000000 )


      isym = 39     inv.  90 deg rotation - cart. axis [-1,0,0]  

 cryst.   s(39) = (    -1          0          0      )
                  (     0          0          1      )
                  (     0         -1          0      )

 cart.    s(39) = ( -1.0000000  0.0000000  0.0000000 )
                  (  0.0000000  0.0000000 -1.0000000 )
                  (  0.0000000  1.0000000  0.0000000 )


      isym = 40     inv.  90 deg rotation - cart. axis [1,0,0]   

 cryst.   s(40) = (    -1          0          0      )
                  (     0          0         -1      )
                  (     0          1          0      )

 cart.    s(40) = ( -1.0000000  0.0000000  0.0000000 )
                  (  0.0000000  0.0000000  1.0000000 )
                  (  0.0000000 -1.0000000  0.0000000 )


      isym = 41     inv. 120 deg rotation - cart. axis [-1,-1,-1]

 cryst.   s(41) = (     0          0         -1      )
                  (    -1          0          0      )
                  (     0         -1          0      )

 cart.    s(41) = (  0.0000000 -1.0000000  0.0000000 )
                  (  0.0000000  0.0000000 -1.0000000 )
                  ( -1.0000000  0.0000000  0.0000000 )


      isym = 42     inv. 120 deg rotation - cart. axis [-1,1,1]  

 cryst.   s(42) = (     0          0          1      )
                  (     1          0          0      )
                  (     0         -1          0      )

 cart.    s(42) = (  0.0000000  1.0000000  0.0000000 )
                  (  0.0000000  0.0000000 -1.0000000 )
                  (  1.0000000  0.0000000  0.0000000 )


      isym = 43     inv. 120 deg rotation - cart. axis [1,1,-1]  

 cryst.   s(43) = (     0          0          1      )
                  (    -1          0          0      )
                  (     0          1          0      )

 cart.    s(43) = (  0.0000000 -1.0000000  0.0000000 )
                  (  0.0000000  0.0000000  1.0000000 )
                  (  1.0000000  0.0000000  0.0000000 )


      isym = 44     inv. 120 deg rotation - cart. axis [1,-1,1]  

 cryst.   s(44) = (     0          0         -1      )
                  (     1          0          0      )
                  (     0          1          0      )

 cart.    s(44) = (  0.0000000  1.0000000  0.0000000 )
                  (  0.0000000  0.0000000  1.0000000 )
                  ( -1.0000000  0.0000000  0.0000000 )


      isym = 45     inv. 120 deg rotation - cart. axis [1,1,1]   

 cryst.   s(45) = (     0         -1          0      )
                  (     0          0         -1      )
                  (    -1          0          0      )

 cart.    s(45) = (  0.0000000  0.0000000 -1.0000000 )
                  ( -1.0000000  0.0000000  0.0000000 )
                  (  0.0000000 -1.0000000  0.0000000 )


      isym = 46     inv. 120 deg rotation - cart. axis [-1,1,-1] 

 cryst.   s(46) = (     0          1          0      )
                  (     0          0          1      )
                  (    -1          0          0      )

 cart.    s(46) = (  0.0000000  0.0000000 -1.0000000 )
                  (  1.0000000  0.0000000  0.0000000 )
                  (  0.0000000  1.0000000  0.0000000 )


      isym = 47     inv. 120 deg rotation - cart. axis [1,-1,-1] 

 cryst.   s(47) = (     0          1          0      )
                  (     0          0         -1      )
                  (     1          0          0      )

 cart.    s(47) = (  0.0000000  0.0000000  1.0000000 )
                  (  1.0000000  0.0000000  0.0000000 )
                  (  0.0000000 -1.0000000  0.0000000 )


      isym = 48     inv. 120 deg rotation - cart. axis [-1,-1,1] 

 cryst.   s(48) = (     0         -1          0      )
                  (     0          0          1      )
                  (     1          0          0      )

 cart.    s(48) = (  0.0000000  0.0000000  1.0000000 )
                  ( -1.0000000  0.0000000  0.0000000 )
                  (  0.0000000  1.0000000  0.0000000 )


   Cartesian axes

     site n.     atom                  positions (alat units)
         1        Pt     tau(   1) = (  -0.2177778  -0.1088889  -0.1088889  )
         2        Pt     tau(   2) = (  -0.1088889  -0.2177778  -0.1088889  )
         3        Pt     tau(   3) = (  -0.1088889  -0.1088889  -0.2177778  )
         4        Pt     tau(   4) = (  -0.2177778  -0.2177778   0.0000000  )
         5        Pt     tau(   5) = (  -0.2177778  -0.1088889   0.1088889  )
         6        Pt     tau(   6) = (  -0.1088889  -0.2177778   0.1088889  )
         7        Pt     tau(   7) = (  -0.1088889  -0.1088889   0.0000000  )
         8        Pt     tau(   8) = (  -0.1088889  -0.1088889   0.2177778  )
         9        Pt     tau(   9) = (  -0.2177778   0.0000000  -0.2177778  )
        10        Pt     tau(  10) = (  -0.2177778   0.1088889  -0.1088889  )
        11        Pt     tau(  11) = (  -0.1088889   0.0000000  -0.1088889  )
        12        Pt     tau(  12) = (  -0.1088889   0.1088889  -0.2177778  )
        13        Pt     tau(  13) = (  -0.2177778   0.0000000   0.0000000  )
        14        Pt     tau(  14) = (  -0.2177778   0.1088889   0.1088889  )
        15        Pt     tau(  15) = (  -0.1088889   0.0000000   0.1088889  )
        16        Pt     tau(  16) = (  -0.1088889   0.1088889   0.0000000  )
        17        Pt     tau(  17) = (  -0.2177778   0.0000000   0.2177778  )
        18        Pt     tau(  18) = (  -0.1088889   0.1088889   0.2177778  )
        19        Pt     tau(  19) = (  -0.1088889   0.2177778  -0.1088889  )
        20        Pt     tau(  20) = (  -0.2177778   0.2177778   0.0000000  )
        21        Pt     tau(  21) = (  -0.1088889   0.2177778   0.1088889  )
        22        Pt     tau(  22) = (   0.0000000  -0.2177778  -0.2177778  )
        23        Pt     tau(  23) = (   0.0000000  -0.1088889  -0.1088889  )
        24        Pt     tau(  24) = (   0.1088889  -0.2177778  -0.1088889  )
        25        Pt     tau(  25) = (   0.1088889  -0.1088889  -0.2177778  )
        26        Pt     tau(  26) = (   0.0000000  -0.2177778   0.0000000  )
        27        Pt     tau(  27) = (   0.0000000  -0.1088889   0.1088889  )
        28        Pt     tau(  28) = (   0.1088889  -0.2177778   0.1088889  )
        29        Pt     tau(  29) = (   0.1088889  -0.1088889   0.0000000  )
        30        Pt     tau(  30) = (   0.0000000  -0.2177778   0.2177778  )
        31        Pt     tau(  31) = (   0.1088889  -0.1088889   0.2177778  )
        32        Pt     tau(  32) = (   0.0000000   0.0000000  -0.2177778  )
        33        Pt     tau(  33) = (   0.0000000   0.1088889  -0.1088889  )
        34        Pt     tau(  34) = (   0.1088889   0.0000000  -0.1088889  )
        35        Pt     tau(  35) = (   0.1088889   0.1088889  -0.2177778  )
        36        Pt     tau(  36) = (   0.0000000   0.0000000   0.0000000  )
        37        Pt     tau(  37) = (   0.0000000   0.1088889   0.1088889  )
        38        Pt     tau(  38) = (   0.1088889   0.0000000   0.1088889  )
        39        Pt     tau(  39) = (   0.1088889   0.1088889   0.0000000  )
        40        Pt     tau(  40) = (   0.0000000   0.0000000   0.2177778  )
        41        Pt     tau(  41) = (   0.1088889   0.1088889   0.2177778  )
        42        Pt     tau(  42) = (   0.0000000   0.2177778  -0.2177778  )
        43        Pt     tau(  43) = (   0.1088889   0.2177778  -0.1088889  )
        44        Pt     tau(  44) = (   0.0000000   0.2177778   0.0000000  )
        45        Pt     tau(  45) = (   0.1088889   0.2177778   0.1088889  )
        46        Pt     tau(  46) = (   0.0000000   0.2177778   0.2177778  )
        47        Pt     tau(  47) = (   0.2177778  -0.1088889  -0.1088889  )
        48        Pt     tau(  48) = (   0.2177778  -0.2177778   0.0000000  )
        49        Pt     tau(  49) = (   0.2177778  -0.1088889   0.1088889  )
        50        Pt     tau(  50) = (   0.2177778   0.0000000  -0.2177778  )
        51        Pt     tau(  51) = (   0.2177778   0.1088889  -0.1088889  )
        52        Pt     tau(  52) = (   0.2177778   0.0000000   0.0000000  )
        53        Pt     tau(  53) = (   0.2177778   0.1088889   0.1088889  )
        54        Pt     tau(  54) = (   0.2177778   0.0000000   0.2177778  )
        55        Pt     tau(  55) = (   0.2177778   0.2177778   0.0000000  )

   Crystallographic axes

     site n.     atom                  positions (cryst. coord.)
         1        Pt     tau(   1) = ( -0.2177778 -0.1088889 -0.1088889  )
         2        Pt     tau(   2) = ( -0.1088889 -0.2177778 -0.1088889  )
         3        Pt     tau(   3) = ( -0.1088889 -0.1088889 -0.2177778  )
         4        Pt     tau(   4) = ( -0.2177778 -0.2177778  0.0000000  )
         5        Pt     tau(   5) = ( -0.2177778 -0.1088889  0.1088889  )
         6        Pt     tau(   6) = ( -0.1088889 -0.2177778  0.1088889  )
         7        Pt     tau(   7) = ( -0.1088889 -0.1088889  0.0000000  )
         8        Pt     tau(   8) = ( -0.1088889 -0.1088889  0.2177778  )
         9        Pt     tau(   9) = ( -0.2177778  0.0000000 -0.2177778  )
        10        Pt     tau(  10) = ( -0.2177778  0.1088889 -0.1088889  )
        11        Pt     tau(  11) = ( -0.1088889  0.0000000 -0.1088889  )
        12        Pt     tau(  12) = ( -0.1088889  0.1088889 -0.2177778  )
        13        Pt     tau(  13) = ( -0.2177778  0.0000000  0.0000000  )
        14        Pt     tau(  14) = ( -0.2177778  0.1088889  0.1088889  )
        15        Pt     tau(  15) = ( -0.1088889  0.0000000  0.1088889  )
        16        Pt     tau(  16) = ( -0.1088889  0.1088889  0.0000000  )
        17        Pt     tau(  17) = ( -0.2177778  0.0000000  0.2177778  )
        18        Pt     tau(  18) = ( -0.1088889  0.1088889  0.2177778  )
        19        Pt     tau(  19) = ( -0.1088889  0.2177778 -0.1088889  )
        20        Pt     tau(  20) = ( -0.2177778  0.2177778  0.0000000  )
        21        Pt     tau(  21) = ( -0.1088889  0.2177778  0.1088889  )
        22        Pt     tau(  22) = (  0.0000000 -0.2177778 -0.2177778  )
        23        Pt     tau(  23) = (  0.0000000 -0.1088889 -0.1088889  )
        24        Pt     tau(  24) = (  0.1088889 -0.2177778 -0.1088889  )
        25        Pt     tau(  25) = (  0.1088889 -0.1088889 -0.2177778  )
        26        Pt     tau(  26) = (  0.0000000 -0.2177778  0.0000000  )
        27        Pt     tau(  27) = (  0.0000000 -0.1088889  0.1088889  )
        28        Pt     tau(  28) = (  0.1088889 -0.2177778  0.1088889  )
        29        Pt     tau(  29) = (  0.1088889 -0.1088889  0.0000000  )
        30        Pt     tau(  30) = (  0.0000000 -0.2177778  0.2177778  )
        31        Pt     tau(  31) = (  0.1088889 -0.1088889  0.2177778  )
        32        Pt     tau(  32) = (  0.0000000  0.0000000 -0.2177778  )
        33        Pt     tau(  33) = (  0.0000000  0.1088889 -0.1088889  )
        34        Pt     tau(  34) = (  0.1088889  0.0000000 -0.1088889  )
        35        Pt     tau(  35) = (  0.1088889  0.1088889 -0.2177778  )
        36        Pt     tau(  36) = (  0.0000000  0.0000000  0.0000000  )
        37        Pt     tau(  37) = (  0.0000000  0.1088889  0.1088889  )
        38        Pt     tau(  38) = (  0.1088889  0.0000000  0.1088889  )
        39        Pt     tau(  39) = (  0.1088889  0.1088889  0.0000000  )
        40        Pt     tau(  40) = (  0.0000000  0.0000000  0.2177778  )
        41        Pt     tau(  41) = (  0.1088889  0.1088889  0.2177778  )
        42        Pt     tau(  42) = (  0.0000000  0.2177778 -0.2177778  )
        43        Pt     tau(  43) = (  0.1088889  0.2177778 -0.1088889  )
        44        Pt     tau(  44) = (  0.0000000  0.2177778  0.0000000  )
        45        Pt     tau(  45) = (  0.1088889  0.2177778  0.1088889  )
        46        Pt     tau(  46) = (  0.0000000  0.2177778  0.2177778  )
        47        Pt     tau(  47) = (  0.2177778 -0.1088889 -0.1088889  )
        48        Pt     tau(  48) = (  0.2177778 -0.2177778  0.0000000  )
        49        Pt     tau(  49) = (  0.2177778 -0.1088889  0.1088889  )
        50        Pt     tau(  50) = (  0.2177778  0.0000000 -0.2177778  )
        51        Pt     tau(  51) = (  0.2177778  0.1088889 -0.1088889  )
        52        Pt     tau(  52) = (  0.2177778  0.0000000  0.0000000  )
        53        Pt     tau(  53) = (  0.2177778  0.1088889  0.1088889  )
        54        Pt     tau(  54) = (  0.2177778  0.0000000  0.2177778  )
        55        Pt     tau(  55) = (  0.2177778  0.2177778  0.0000000  )

     number of k points=     1  Gaussian smearing, width (Ry)=  0.0100
                       cart. coord. in units 2pi/alat
        k(    1) = (   0.0000000   0.0000000   0.0000000), wk =   1.0000000

                       cryst. coord.
        k(    1) = (   0.0000000   0.0000000   0.0000000), wk =   1.0000000

     Dense  grid:  3494625 G-vectors     FFT dimensions: ( 240, 240, 240)

     Smooth grid:  1235284 G-vectors     FFT dimensions: ( 180, 180, 180)

     Dynamical RAM for                 wfc:      34.56 MB

     Dynamical RAM for     wfc (w. buffer):     103.69 MB

     Dynamical RAM for           str. fact:       1.48 MB

     Dynamical RAM for           local pot:       0.00 MB

     Dynamical RAM for          nlocal pot:      64.81 MB

     Dynamical RAM for                qrad:       1.76 MB

     Dynamical RAM for          rho,v,vnew:      27.34 MB

     Dynamical RAM for               rhoin:       9.11 MB

     Dynamical RAM for            rho*nmix:      47.40 MB

     Dynamical RAM for           G-vectors:       5.82 MB

     Dynamical RAM for          h,s,v(r/c):       0.25 MB

     Dynamical RAM for          <psi|beta>:       3.99 MB

     Dynamical RAM for      wfcinit/wfcrot:      75.51 MB

     Dynamical RAM for           addusdens:     358.47 MB

     Dynamical RAM for          addusforce:     518.87 MB

     Estimated static dynamical RAM per process >     235.43 MB

     Estimated max dynamical RAM per process >     801.70 MB

     Estimated total dynamical RAM >      28.18 GB
     Generating pointlists ...
     new r_m :   0.0635 (alat units)  2.1607 (a.u.) for type    1
     Cannot read rho : file not found

     Initial potential from superposition of free atoms

     starting charge     852.4994, renormalised to     880.0000

     negative rho (up, down):  5.273E+00 5.168E+00


---------------------------------------------------------------------------------
Carrying out rVV10 run using the following parameters:
Nqs =      20    Nr_points =    1024   r_max =   100.000
b_value =  6.30000    beta =  0.00901
     q_mesh =  0.00010000  0.00030000  0.00058939  0.00100810
               0.00161396  0.00249058  0.00375900  0.00559430
               0.00824984  0.01209221  0.01765183  0.02569619
               0.03733578  0.05417739  0.07854596  0.11380545
               0.16482331  0.23864234  0.34545298  0.50000000

Gradients computed in Reciprocal space

---------------------------------------------------------------------------------




     ----------------------------------------------------------------

     Non-local correlation energy =              9.743635014586960

     ----------------------------------------------------------------

     Message from routine qexsd_readschema :
     xml data file ./out/calc.save/data-file-schema.xml not found
     Cannot read wfcs: file not found
     Starting wfcs are  660 randomized atomic wfcs

     total cpu time spent up to now is       16.3 secs

     Self-consistent Calculation

     iteration #  1     ecut=    60.00 Ry     beta= 0.20
     CG style diagonalization

---- Real-time Memory Report at c_bands before calling an iterative solver
             0 MiB given to the printing process from OS
             0 MiB allocation reported by mallinfo(arena+hblkhd)
        169521 MiB available memory on the node where the printing process lives
------------------
     c_bands:  3 eigenvalues not converged
     c_bands:  3 eigenvalues not converged
     ethr =  1.00E-05,  avg # of iterations = 19.3

     negative rho (up, down):  5.080E+00 4.992E+00


     ----------------------------------------------------------------

     Non-local correlation energy =              9.362764834498591

     ----------------------------------------------------------------


     total cpu time spent up to now is     1433.2 secs

     total energy              =  -11539.72721389 Ry
     estimated scf accuracy    <     232.24272408 Ry

     total magnetization       =     2.54 Bohr mag/cell
     absolute magnetization    =     3.08 Bohr mag/cell

     iteration #  2     ecut=    60.00 Ry     beta= 0.20
     CG style diagonalization

---- Real-time Memory Report at c_bands before calling an iterative solver
             0 MiB given to the printing process from OS
             0 MiB allocation reported by mallinfo(arena+hblkhd)
        167927 MiB available memory on the node where the printing process lives
------------------
     ethr =  1.00E-02,  avg # of iterations =  4.5

     negative rho (up, down):  5.050E+00 4.967E+00


     ----------------------------------------------------------------

     Non-local correlation energy =              9.318986661661910

     ----------------------------------------------------------------


     total cpu time spent up to now is     1735.3 secs

     total energy              =  -11560.00510260 Ry
     estimated scf accuracy    <     487.21593642 Ry

     total magnetization       =     6.08 Bohr mag/cell
     absolute magnetization    =     8.06 Bohr mag/cell

     iteration #  3     ecut=    60.00 Ry     beta= 0.20
     CG style diagonalization

---- Real-time Memory Report at c_bands before calling an iterative solver
             0 MiB given to the printing process from OS
             0 MiB allocation reported by mallinfo(arena+hblkhd)
        167829 MiB available memory on the node where the printing process lives
------------------
     ethr =  1.00E-02,  avg # of iterations =  3.6

     negative rho (up, down):  4.994E+00 4.921E+00


     ----------------------------------------------------------------

     Non-local correlation energy =              9.269578658293234

     ----------------------------------------------------------------


     total cpu time spent up to now is     1956.2 secs

     total energy              =  -11587.75405384 Ry
     estimated scf accuracy    <      10.12636486 Ry

     total magnetization       =     4.29 Bohr mag/cell
     absolute magnetization    =     6.21 Bohr mag/cell

     iteration #  4     ecut=    60.00 Ry     beta= 0.20
     CG style diagonalization

---- Real-time Memory Report at c_bands before calling an iterative solver
             0 MiB given to the printing process from OS
             0 MiB allocation reported by mallinfo(arena+hblkhd)
        167731 MiB available memory on the node where the printing process lives
------------------
     c_bands:  4 eigenvalues not converged
     ethr =  1.15E-03,  avg # of iterations =  4.4

     negative rho (up, down):  4.980E+00 4.910E+00


     ----------------------------------------------------------------

     Non-local correlation energy =              9.261226253344658

     ----------------------------------------------------------------


     total cpu time spent up to now is     2244.8 secs

     total energy              =  -11589.39907446 Ry
     estimated scf accuracy    <      13.19687349 Ry

     total magnetization       =     4.80 Bohr mag/cell
     absolute magnetization    =     5.66 Bohr mag/cell

     iteration #  5     ecut=    60.00 Ry     beta= 0.20
     CG style diagonalization

---- Real-time Memory Report at c_bands before calling an iterative solver
             0 MiB given to the printing process from OS
             0 MiB allocation reported by mallinfo(arena+hblkhd)
        167619 MiB available memory on the node where the printing process lives
------------------
     ethr =  1.15E-03,  avg # of iterations =  3.0

     negative rho (up, down):  4.965E+00 4.898E+00


     ----------------------------------------------------------------

     Non-local correlation energy =              9.253520057598884

     ----------------------------------------------------------------


     total cpu time spent up to now is     2419.9 secs

     total energy              =  -11588.89996876 Ry
     estimated scf accuracy    <      59.16145010 Ry

     total magnetization       =     3.00 Bohr mag/cell
     absolute magnetization    =     3.26 Bohr mag/cell

     iteration #  6     ecut=    60.00 Ry     beta= 0.20
     CG style diagonalization

---- Real-time Memory Report at c_bands before calling an iterative solver
             0 MiB given to the printing process from OS
             0 MiB allocation reported by mallinfo(arena+hblkhd)
        167528 MiB available memory on the node where the printing process lives
------------------
     ethr =  1.15E-03,  avg # of iterations =  3.0

     negative rho (up, down):  4.947E+00 4.885E+00


     ----------------------------------------------------------------

     Non-local correlation energy =              9.245759731485101

     ----------------------------------------------------------------


     total cpu time spent up to now is     2594.4 secs

     total energy              =  -11589.11227297 Ry
     estimated scf accuracy    <      37.55223917 Ry

     total magnetization       =     3.41 Bohr mag/cell
     absolute magnetization    =     3.65 Bohr mag/cell

     iteration #  7     ecut=    60.00 Ry     beta= 0.20
     CG style diagonalization

---- Real-time Memory Report at c_bands before calling an iterative solver
             0 MiB given to the printing process from OS
             0 MiB allocation reported by mallinfo(arena+hblkhd)
        167435 MiB available memory on the node where the printing process lives
------------------
     ethr =  1.15E-03,  avg # of iterations =  3.0

     negative rho (up, down):  4.936E+00 4.877E+00


     ----------------------------------------------------------------

     Non-local correlation energy =              9.241584300066409

     ----------------------------------------------------------------


     total cpu time spent up to now is     2768.9 secs

     total energy              =  -11589.20563760 Ry
     estimated scf accuracy    <      51.22660743 Ry

     total magnetization       =     3.08 Bohr mag/cell
     absolute magnetization    =     3.34 Bohr mag/cell

     iteration #  8     ecut=    60.00 Ry     beta= 0.20
     CG style diagonalization

---- Real-time Memory Report at c_bands before calling an iterative solver
             0 MiB given to the printing process from OS
             0 MiB allocation reported by mallinfo(arena+hblkhd)
        167333 MiB available memory on the node where the printing process lives
------------------
     ethr =  1.15E-03,  avg # of iterations =  3.0

     negative rho (up, down):  4.924E+00 4.869E+00


     ----------------------------------------------------------------

     Non-local correlation energy =              9.237932595291774

     ----------------------------------------------------------------


     total cpu time spent up to now is     2943.3 secs

     total energy              =  -11589.93665617 Ry
     estimated scf accuracy    <      14.87767356 Ry

     total magnetization       =     3.67 Bohr mag/cell
     absolute magnetization    =     3.92 Bohr mag/cell

     iteration #  9     ecut=    60.00 Ry     beta= 0.20
     CG style diagonalization

---- Real-time Memory Report at c_bands before calling an iterative solver
             0 MiB given to the printing process from OS
             0 MiB allocation reported by mallinfo(arena+hblkhd)
        167239 MiB available memory on the node where the printing process lives
------------------
     ethr =  1.15E-03,  avg # of iterations =  3.0

     negative rho (up, down):  4.918E+00 4.865E+00


     ----------------------------------------------------------------

     Non-local correlation energy =              9.236728866742592

     ----------------------------------------------------------------


     total cpu time spent up to now is     3117.8 secs

     total energy              =  -11590.07496425 Ry
     estimated scf accuracy    <       5.30542576 Ry

     total magnetization       =     3.65 Bohr mag/cell
     absolute magnetization    =     3.87 Bohr mag/cell

     iteration # 10     ecut=    60.00 Ry     beta= 0.20
     CG style diagonalization

---- Real-time Memory Report at c_bands before calling an iterative solver
             0 MiB given to the printing process from OS
             0 MiB allocation reported by mallinfo(arena+hblkhd)
        167135 MiB available memory on the node where the printing process lives
------------------
     ethr =  6.03E-04,  avg # of iterations =  3.0

     negative rho (up, down):  4.912E+00 4.861E+00


     ----------------------------------------------------------------

     Non-local correlation energy =              9.235761510551313

     ----------------------------------------------------------------


     total cpu time spent up to now is     3292.4 secs

     total energy              =  -11590.18595839 Ry
     estimated scf accuracy    <       2.46890098 Ry

     total magnetization       =     3.94 Bohr mag/cell
     absolute magnetization    =     4.15 Bohr mag/cell

     iteration # 11     ecut=    60.00 Ry     beta= 0.20
     CG style diagonalization

---- Real-time Memory Report at c_bands before calling an iterative solver
             0 MiB given to the printing process from OS
             0 MiB allocation reported by mallinfo(arena+hblkhd)
        167137 MiB available memory on the node where the printing process lives
------------------
     ethr =  2.81E-04,  avg # of iterations =  3.0

     negative rho (up, down):  4.908E+00 4.858E+00


     ----------------------------------------------------------------

     Non-local correlation energy =              9.235517037083888

     ----------------------------------------------------------------


     total cpu time spent up to now is     3469.7 secs

     total energy              =  -11590.18524433 Ry
     estimated scf accuracy    <       1.20261465 Ry

     total magnetization       =     4.08 Bohr mag/cell
     absolute magnetization    =     4.28 Bohr mag/cell

     iteration # 12     ecut=    60.00 Ry     beta= 0.20
     CG style diagonalization

---- Real-time Memory Report at c_bands before calling an iterative solver
             0 MiB given to the printing process from OS
             0 MiB allocation reported by mallinfo(arena+hblkhd)
        167133 MiB available memory on the node where the printing process lives
------------------
     c_bands:  2 eigenvalues not converged
     ethr =  1.37E-04,  avg # of iterations =  3.1

     negative rho (up, down):  4.901E+00 4.854E+00


     ----------------------------------------------------------------

     Non-local correlation energy =              9.235816357214341

     ----------------------------------------------------------------


     total cpu time spent up to now is     3653.1 secs

     total energy              =  -11590.12855812 Ry
     estimated scf accuracy    <       3.67791287 Ry

     total magnetization       =     4.11 Bohr mag/cell
     absolute magnetization    =     4.32 Bohr mag/cell

     iteration # 13     ecut=    60.00 Ry     beta= 0.20
     CG style diagonalization

---- Real-time Memory Report at c_bands before calling an iterative solver
             0 MiB given to the printing process from OS
             0 MiB allocation reported by mallinfo(arena+hblkhd)
        167139 MiB available memory on the node where the printing process lives
------------------
     ethr =  1.37E-04,  avg # of iterations =  3.0

     negative rho (up, down):  4.894E+00 4.850E+00


     ----------------------------------------------------------------

     Non-local correlation energy =              9.234925866143804

     ----------------------------------------------------------------


     total cpu time spent up to now is     3828.1 secs

     total energy              =  -11590.15944871 Ry
     estimated scf accuracy    <       1.33539143 Ry

     total magnetization       =     4.33 Bohr mag/cell
     absolute magnetization    =     4.53 Bohr mag/cell

     iteration # 14     ecut=    60.00 Ry     beta= 0.20
     CG style diagonalization

---- Real-time Memory Report at c_bands before calling an iterative solver
             0 MiB given to the printing process from OS
             0 MiB allocation reported by mallinfo(arena+hblkhd)
        167128 MiB available memory on the node where the printing process lives
------------------
     ethr =  1.37E-04,  avg # of iterations =  3.0

     negative rho (up, down):  4.892E+00 4.849E+00


     ----------------------------------------------------------------

     Non-local correlation energy =              9.235273769394537

     ----------------------------------------------------------------


     total cpu time spent up to now is     4002.5 secs

     total energy              =  -11590.17567885 Ry
     estimated scf accuracy    <       0.60646966 Ry

     total magnetization       =     4.32 Bohr mag/cell
     absolute magnetization    =     4.52 Bohr mag/cell

     iteration # 15     ecut=    60.00 Ry     beta= 0.20
     CG style diagonalization

---- Real-time Memory Report at c_bands before calling an iterative solver
             0 MiB given to the printing process from OS
             0 MiB allocation reported by mallinfo(arena+hblkhd)
        167132 MiB available memory on the node where the printing process lives
------------------
     c_bands:  1 eigenvalues not converged
     ethr =  6.89E-05,  avg # of iterations =  3.0

     negative rho (up, down):  4.889E+00 4.847E+00


     ----------------------------------------------------------------

     Non-local correlation energy =              9.235909151927988

     ----------------------------------------------------------------


     total cpu time spent up to now is     4180.0 secs

     total energy              =  -11590.17969075 Ry
     estimated scf accuracy    <       0.33768140 Ry

     total magnetization       =     4.26 Bohr mag/cell
     absolute magnetization    =     4.46 Bohr mag/cell

     iteration # 16     ecut=    60.00 Ry     beta= 0.20
     CG style diagonalization

---- Real-time Memory Report at c_bands before calling an iterative solver
             0 MiB given to the printing process from OS
             0 MiB allocation reported by mallinfo(arena+hblkhd)
        167128 MiB available memory on the node where the printing process lives
------------------
     ethr =  3.84E-05,  avg # of iterations =  3.0

     negative rho (up, down):  4.887E+00 4.846E+00


     ----------------------------------------------------------------

     Non-local correlation energy =              9.235872636333276

     ----------------------------------------------------------------


     total cpu time spent up to now is     4356.5 secs

     total energy              =  -11590.16682387 Ry
     estimated scf accuracy    <       1.07868771 Ry

     total magnetization       =     4.22 Bohr mag/cell
     absolute magnetization    =     4.43 Bohr mag/cell

     iteration # 17     ecut=    60.00 Ry     beta= 0.20
     CG style diagonalization

---- Real-time Memory Report at c_bands before calling an iterative solver
             0 MiB given to the printing process from OS
             0 MiB allocation reported by mallinfo(arena+hblkhd)
        167122 MiB available memory on the node where the printing process lives
------------------
     ethr =  3.84E-05,  avg # of iterations =  3.0

     negative rho (up, down):  4.886E+00 4.845E+00


     ----------------------------------------------------------------

     Non-local correlation energy =              9.235886634840154

     ----------------------------------------------------------------


     total cpu time spent up to now is     4531.3 secs

     total energy              =  -11590.16638680 Ry
     estimated scf accuracy    <       1.27203177 Ry

     total magnetization       =     4.22 Bohr mag/cell
     absolute magnetization    =     4.43 Bohr mag/cell

     iteration # 18     ecut=    60.00 Ry     beta= 0.20
     CG style diagonalization

---- Real-time Memory Report at c_bands before calling an iterative solver
             0 MiB given to the printing process from OS
             0 MiB allocation reported by mallinfo(arena+hblkhd)
        167117 MiB available memory on the node where the printing process lives
------------------
     ethr =  3.84E-05,  avg # of iterations =  3.0

     negative rho (up, down):  4.881E+00 4.842E+00


     ----------------------------------------------------------------

     Non-local correlation energy =              9.235768948984983

     ----------------------------------------------------------------


     total cpu time spent up to now is     4707.3 secs

     total energy              =  -11590.17663692 Ry
     estimated scf accuracy    <       0.68114657 Ry

     total magnetization       =     4.28 Bohr mag/cell
     absolute magnetization    =     4.49 Bohr mag/cell

     iteration # 19     ecut=    60.00 Ry     beta= 0.20
     CG style diagonalization

---- Real-time Memory Report at c_bands before calling an iterative solver
             0 MiB given to the printing process from OS
             0 MiB allocation reported by mallinfo(arena+hblkhd)
        167111 MiB available memory on the node where the printing process lives
------------------
     ethr =  3.84E-05,  avg # of iterations =  3.0

     negative rho (up, down):  4.875E+00 4.839E+00


     ----------------------------------------------------------------

     Non-local correlation energy =              9.235128920491549

     ----------------------------------------------------------------


     total cpu time spent up to now is     4881.8 secs

     total energy              =  -11590.17900306 Ry
     estimated scf accuracy    <       0.21590063 Ry

     total magnetization       =     4.28 Bohr mag/cell
     absolute magnetization    =     4.50 Bohr mag/cell

     iteration # 20     ecut=    60.00 Ry     beta= 0.20
     CG style diagonalization

---- Real-time Memory Report at c_bands before calling an iterative solver
             0 MiB given to the printing process from OS
             0 MiB allocation reported by mallinfo(arena+hblkhd)
        167113 MiB available memory on the node where the printing process lives
------------------
     c_bands:  1 eigenvalues not converged
     c_bands:  2 eigenvalues not converged
     ethr =  2.45E-05,  avg # of iterations =  3.1

     negative rho (up, down):  4.876E+00 4.840E+00


     ----------------------------------------------------------------

     Non-local correlation energy =              9.235354201627873

     ----------------------------------------------------------------


     total cpu time spent up to now is     5063.7 secs

     total energy              =  -11590.17919445 Ry
     estimated scf accuracy    <       0.13244001 Ry

     total magnetization       =     4.28 Bohr mag/cell
     absolute magnetization    =     4.50 Bohr mag/cell

     iteration # 21     ecut=    60.00 Ry     beta= 0.20
     CG style diagonalization

---- Real-time Memory Report at c_bands before calling an iterative solver
             0 MiB given to the printing process from OS
             0 MiB allocation reported by mallinfo(arena+hblkhd)
        167121 MiB available memory on the node where the printing process lives
------------------
     ethr =  1.51E-05,  avg # of iterations =  3.0

     negative rho (up, down):  4.875E+00 4.839E+00


     ----------------------------------------------------------------

     Non-local correlation energy =              9.235138119580267

     ----------------------------------------------------------------


     total cpu time spent up to now is     5240.6 secs

     total energy              =  -11590.17675540 Ry
     estimated scf accuracy    <       0.25075519 Ry

     total magnetization       =     4.29 Bohr mag/cell
     absolute magnetization    =     4.50 Bohr mag/cell

     iteration # 22     ecut=    60.00 Ry     beta= 0.20
     CG style diagonalization

---- Real-time Memory Report at c_bands before calling an iterative solver
             0 MiB given to the printing process from OS
             0 MiB allocation reported by mallinfo(arena+hblkhd)
        167118 MiB available memory on the node where the printing process lives
------------------
     ethr =  1.51E-05,  avg # of iterations =  3.0

     negative rho (up, down):  4.871E+00 4.837E+00


     ----------------------------------------------------------------

     Non-local correlation energy =              9.234369788007072

     ----------------------------------------------------------------


     total cpu time spent up to now is     5415.1 secs

     total energy              =  -11590.17530066 Ry
     estimated scf accuracy    <       0.60627413 Ry

     total magnetization       =     4.27 Bohr mag/cell
     absolute magnetization    =     4.49 Bohr mag/cell

     iteration # 23     ecut=    60.00 Ry     beta= 0.20
     CG style diagonalization

---- Real-time Memory Report at c_bands before calling an iterative solver
             0 MiB given to the printing process from OS
             0 MiB allocation reported by mallinfo(arena+hblkhd)
        167113 MiB available memory on the node where the printing process lives
------------------
     ethr =  1.51E-05,  avg # of iterations =  3.0

     negative rho (up, down):  4.871E+00 4.838E+00


     ----------------------------------------------------------------

     Non-local correlation energy =              9.234313672104026

     ----------------------------------------------------------------


     total cpu time spent up to now is     5589.5 secs

     total energy              =  -11590.18310554 Ry
     estimated scf accuracy    <       0.08271861 Ry

     total magnetization       =     4.30 Bohr mag/cell
     absolute magnetization    =     4.53 Bohr mag/cell

     iteration # 24     ecut=    60.00 Ry     beta= 0.20
     CG style diagonalization

---- Real-time Memory Report at c_bands before calling an iterative solver
             0 MiB given to the printing process from OS
             0 MiB allocation reported by mallinfo(arena+hblkhd)
        167113 MiB available memory on the node where the printing process lives
------------------
     ethr =  9.40E-06,  avg # of iterations =  3.0

     negative rho (up, down):  4.872E+00 4.838E+00


     ----------------------------------------------------------------

     Non-local correlation energy =              9.234355746760379

     ----------------------------------------------------------------


     total cpu time spent up to now is     5764.7 secs

     total energy              =  -11590.18320212 Ry
     estimated scf accuracy    <       0.09689654 Ry

     total magnetization       =     4.29 Bohr mag/cell
     absolute magnetization    =     4.51 Bohr mag/cell

     iteration # 25     ecut=    60.00 Ry     beta= 0.20
     CG style diagonalization

---- Real-time Memory Report at c_bands before calling an iterative solver
             0 MiB given to the printing process from OS
             0 MiB allocation reported by mallinfo(arena+hblkhd)
        167104 MiB available memory on the node where the printing process lives
------------------
     ethr =  9.40E-06,  avg # of iterations =  3.0

     negative rho (up, down):  4.870E+00 4.837E+00


     ----------------------------------------------------------------

     Non-local correlation energy =              9.234001940327456

     ----------------------------------------------------------------


     total cpu time spent up to now is     5939.2 secs

     total energy              =  -11590.18447835 Ry
     estimated scf accuracy    <       0.04443038 Ry

     total magnetization       =     4.30 Bohr mag/cell
     absolute magnetization    =     4.53 Bohr mag/cell

     iteration # 26     ecut=    60.00 Ry     beta= 0.20
     CG style diagonalization

---- Real-time Memory Report at c_bands before calling an iterative solver
             0 MiB given to the printing process from OS
             0 MiB allocation reported by mallinfo(arena+hblkhd)
        167102 MiB available memory on the node where the printing process lives
------------------
     ethr =  5.05E-06,  avg # of iterations =  3.1

     negative rho (up, down):  4.870E+00 4.837E+00


     ----------------------------------------------------------------

     Non-local correlation energy =              9.233937145355085

     ----------------------------------------------------------------


     total cpu time spent up to now is     6118.9 secs

     total energy              =  -11590.18417001 Ry
     estimated scf accuracy    <       0.07565769 Ry

     total magnetization       =     4.31 Bohr mag/cell
     absolute magnetization    =     4.53 Bohr mag/cell

     iteration # 27     ecut=    60.00 Ry     beta= 0.20
     CG style diagonalization

---- Real-time Memory Report at c_bands before calling an iterative solver
             0 MiB given to the printing process from OS
             0 MiB allocation reported by mallinfo(arena+hblkhd)
        167087 MiB available memory on the node where the printing process lives
------------------
     ethr =  5.05E-06,  avg # of iterations =  3.0

     negative rho (up, down):  4.871E+00 4.837E+00


     ----------------------------------------------------------------

     Non-local correlation energy =              9.233990202103596

     ----------------------------------------------------------------


     total cpu time spent up to now is     6293.2 secs

     total energy              =  -11590.18430564 Ry
     estimated scf accuracy    <       0.08824424 Ry

     total magnetization       =     4.32 Bohr mag/cell
     absolute magnetization    =     4.54 Bohr mag/cell

     iteration # 28     ecut=    60.00 Ry     beta= 0.20
     CG style diagonalization

---- Real-time Memory Report at c_bands before calling an iterative solver
             0 MiB given to the printing process from OS
             0 MiB allocation reported by mallinfo(arena+hblkhd)
        167101 MiB available memory on the node where the printing process lives
------------------
     ethr =  5.05E-06,  avg # of iterations =  3.0

     negative rho (up, down):  4.870E+00 4.837E+00


     ----------------------------------------------------------------

     Non-local correlation energy =              9.233801395122146

     ----------------------------------------------------------------


     total cpu time spent up to now is     6467.7 secs

     total energy              =  -11590.18436808 Ry
     estimated scf accuracy    <       0.10052451 Ry

     total magnetization       =     4.31 Bohr mag/cell
     absolute magnetization    =     4.53 Bohr mag/cell

     iteration # 29     ecut=    60.00 Ry     beta= 0.20
     CG style diagonalization

---- Real-time Memory Report at c_bands before calling an iterative solver
             0 MiB given to the printing process from OS
             0 MiB allocation reported by mallinfo(arena+hblkhd)
        167105 MiB available memory on the node where the printing process lives
------------------
     ethr =  5.05E-06,  avg # of iterations =  3.0

     negative rho (up, down):  4.869E+00 4.837E+00


     ----------------------------------------------------------------

     Non-local correlation energy =              9.233547754329667

     ----------------------------------------------------------------


     total cpu time spent up to now is     6642.1 secs

     total energy              =  -11590.18555623 Ry
     estimated scf accuracy    <       0.00830244 Ry

     total magnetization       =     4.33 Bohr mag/cell
     absolute magnetization    =     4.55 Bohr mag/cell

     iteration # 30     ecut=    60.00 Ry     beta= 0.20
     CG style diagonalization

---- Real-time Memory Report at c_bands before calling an iterative solver
             0 MiB given to the printing process from OS
             0 MiB allocation reported by mallinfo(arena+hblkhd)
        167110 MiB available memory on the node where the printing process lives
------------------
     c_bands:  1 eigenvalues not converged
     c_bands:  1 eigenvalues not converged
     ethr =  9.43E-07,  avg # of iterations =  3.1

     negative rho (up, down):  4.869E+00 4.837E+00


     ----------------------------------------------------------------

     Non-local correlation energy =              9.233277901987258

     ----------------------------------------------------------------


     total cpu time spent up to now is     6825.2 secs

     total energy              =  -11590.18542500 Ry
     estimated scf accuracy    <       0.00367783 Ry

     total magnetization       =     4.34 Bohr mag/cell
     absolute magnetization    =     4.56 Bohr mag/cell

     iteration # 31     ecut=    60.00 Ry     beta= 0.20
     CG style diagonalization

---- Real-time Memory Report at c_bands before calling an iterative solver
             0 MiB given to the printing process from OS
             0 MiB allocation reported by mallinfo(arena+hblkhd)
        167104 MiB available memory on the node where the printing process lives
------------------
     ethr =  4.18E-07,  avg # of iterations =  3.0

     negative rho (up, down):  4.869E+00 4.837E+00


     ----------------------------------------------------------------

     Non-local correlation energy =              9.233158111928510

     ----------------------------------------------------------------


     total cpu time spent up to now is     7002.0 secs

     total energy              =  -11590.18516165 Ry
     estimated scf accuracy    <       0.00893996 Ry

     total magnetization       =     4.34 Bohr mag/cell
     absolute magnetization    =     4.57 Bohr mag/cell

     iteration # 32     ecut=    60.00 Ry     beta= 0.20
     CG style diagonalization

---- Real-time Memory Report at c_bands before calling an iterative solver
             0 MiB given to the printing process from OS
             0 MiB allocation reported by mallinfo(arena+hblkhd)
        167101 MiB available memory on the node where the printing process lives
------------------
     ethr =  4.18E-07,  avg # of iterations =  3.0

     negative rho (up, down):  4.868E+00 4.837E+00


     ----------------------------------------------------------------

     Non-local correlation energy =              9.232967559086495

     ----------------------------------------------------------------


     total cpu time spent up to now is     7177.7 secs

     total energy              =  -11590.18493505 Ry
     estimated scf accuracy    <       0.02335797 Ry

     total magnetization       =     4.34 Bohr mag/cell
     absolute magnetization    =     4.58 Bohr mag/cell

     iteration # 33     ecut=    60.00 Ry     beta= 0.20
     CG style diagonalization

---- Real-time Memory Report at c_bands before calling an iterative solver
             0 MiB given to the printing process from OS
             0 MiB allocation reported by mallinfo(arena+hblkhd)
        167100 MiB available memory on the node where the printing process lives
------------------
     ethr =  4.18E-07,  avg # of iterations =  3.0

     negative rho (up, down):  4.868E+00 4.836E+00


     ----------------------------------------------------------------

     Non-local correlation energy =              9.232796624890145

     ----------------------------------------------------------------


     total cpu time spent up to now is     7354.9 secs

     total energy              =  -11590.18504325 Ry
     estimated scf accuracy    <       0.00587091 Ry

     total magnetization       =     4.36 Bohr mag/cell
     absolute magnetization    =     4.59 Bohr mag/cell

     iteration # 34     ecut=    60.00 Ry     beta= 0.20
     CG style diagonalization

---- Real-time Memory Report at c_bands before calling an iterative solver
             0 MiB given to the printing process from OS
             0 MiB allocation reported by mallinfo(arena+hblkhd)
        167100 MiB available memory on the node where the printing process lives
------------------
     ethr =  4.18E-07,  avg # of iterations =  3.0

     negative rho (up, down):  4.868E+00 4.836E+00


     ----------------------------------------------------------------

     Non-local correlation energy =              9.232688890796187

     ----------------------------------------------------------------


     total cpu time spent up to now is     7533.3 secs

     total energy              =  -11590.18484766 Ry
     estimated scf accuracy    <       0.00751333 Ry

     total magnetization       =     4.37 Bohr mag/cell
     absolute magnetization    =     4.61 Bohr mag/cell

     iteration # 35     ecut=    60.00 Ry     beta= 0.20
     CG style diagonalization

---- Real-time Memory Report at c_bands before calling an iterative solver
             0 MiB given to the printing process from OS
             0 MiB allocation reported by mallinfo(arena+hblkhd)
        167101 MiB available memory on the node where the printing process lives
------------------
     ethr =  4.18E-07,  avg # of iterations =  3.0

     negative rho (up, down):  4.867E+00 4.836E+00


     ----------------------------------------------------------------

     Non-local correlation energy =              9.232457394035595

     ----------------------------------------------------------------


     total cpu time spent up to now is     7709.2 secs

     total energy              =  -11590.18470924 Ry
     estimated scf accuracy    <       0.00898649 Ry

     total magnetization       =     4.38 Bohr mag/cell
     absolute magnetization    =     4.61 Bohr mag/cell

     iteration # 36     ecut=    60.00 Ry     beta= 0.20
     CG style diagonalization

---- Real-time Memory Report at c_bands before calling an iterative solver
             0 MiB given to the printing process from OS
             0 MiB allocation reported by mallinfo(arena+hblkhd)
        167104 MiB available memory on the node where the printing process lives
------------------
     ethr =  4.18E-07,  avg # of iterations =  3.1

     negative rho (up, down):  4.867E+00 4.836E+00


     ----------------------------------------------------------------

     Non-local correlation energy =              9.232398665205375

     ----------------------------------------------------------------


     total cpu time spent up to now is     7891.8 secs

     total energy              =  -11590.18465384 Ry
     estimated scf accuracy    <       0.01048187 Ry

     total magnetization       =     4.39 Bohr mag/cell
     absolute magnetization    =     4.63 Bohr mag/cell

     iteration # 37     ecut=    60.00 Ry     beta= 0.20
     CG style diagonalization

---- Real-time Memory Report at c_bands before calling an iterative solver
             0 MiB given to the printing process from OS
             0 MiB allocation reported by mallinfo(arena+hblkhd)
        167115 MiB available memory on the node where the printing process lives
------------------
     ethr =  4.18E-07,  avg # of iterations =  3.0

     negative rho (up, down):  4.867E+00 4.836E+00


     ----------------------------------------------------------------

     Non-local correlation energy =              9.232242733411093

     ----------------------------------------------------------------


     total cpu time spent up to now is     8066.0 secs

     total energy              =  -11590.18449051 Ry
     estimated scf accuracy    <       0.01780548 Ry

     total magnetization       =     4.40 Bohr mag/cell
     absolute magnetization    =     4.63 Bohr mag/cell

     iteration # 38     ecut=    60.00 Ry     beta= 0.20
     CG style diagonalization

---- Real-time Memory Report at c_bands before calling an iterative solver
             0 MiB given to the printing process from OS
             0 MiB allocation reported by mallinfo(arena+hblkhd)
        167093 MiB available memory on the node where the printing process lives
------------------
     ethr =  4.18E-07,  avg # of iterations =  3.0

     negative rho (up, down):  4.867E+00 4.836E+00


     ----------------------------------------------------------------

     Non-local correlation energy =              9.232418002455557

     ----------------------------------------------------------------


     total cpu time spent up to now is     8244.1 secs

     total energy              =  -11590.18454164 Ry
     estimated scf accuracy    <       0.02269338 Ry

     total magnetization       =     4.41 Bohr mag/cell
     absolute magnetization    =     4.65 Bohr mag/cell

     iteration # 39     ecut=    60.00 Ry     beta= 0.20
     CG style diagonalization

---- Real-time Memory Report at c_bands before calling an iterative solver
             0 MiB given to the printing process from OS
             0 MiB allocation reported by mallinfo(arena+hblkhd)
        167097 MiB available memory on the node where the printing process lives
------------------
     ethr =  4.18E-07,  avg # of iterations =  3.0

     negative rho (up, down):  4.867E+00 4.836E+00


     ----------------------------------------------------------------

     Non-local correlation energy =              9.232387051595197

     ----------------------------------------------------------------


     total cpu time spent up to now is     8419.5 secs

     total energy              =  -11590.18482542 Ry
     estimated scf accuracy    <       0.00414708 Ry

     total magnetization       =     4.40 Bohr mag/cell
     absolute magnetization    =     4.64 Bohr mag/cell

     iteration # 40     ecut=    60.00 Ry     beta= 0.20
     CG style diagonalization

---- Real-time Memory Report at c_bands before calling an iterative solver
             0 MiB given to the printing process from OS
             0 MiB allocation reported by mallinfo(arena+hblkhd)
        167106 MiB available memory on the node where the printing process lives
------------------
     ethr =  4.18E-07,  avg # of iterations =  3.0

     negative rho (up, down):  4.867E+00 4.836E+00


     ----------------------------------------------------------------

     Non-local correlation energy =              9.232213473834152

     ----------------------------------------------------------------


     total cpu time spent up to now is     8593.6 secs

     total energy              =  -11590.18480204 Ry
     estimated scf accuracy    <       0.00122965 Ry

     total magnetization       =     4.40 Bohr mag/cell
     absolute magnetization    =     4.64 Bohr mag/cell

     iteration # 41     ecut=    60.00 Ry     beta= 0.20
     CG style diagonalization

---- Real-time Memory Report at c_bands before calling an iterative solver
             0 MiB given to the printing process from OS
             0 MiB allocation reported by mallinfo(arena+hblkhd)
        167096 MiB available memory on the node where the printing process lives
------------------
     ethr =  1.40E-07,  avg # of iterations =  3.0

     negative rho (up, down):  4.867E+00 4.836E+00


     ----------------------------------------------------------------

     Non-local correlation energy =              9.232185486969392

     ----------------------------------------------------------------


     total cpu time spent up to now is     8768.6 secs

     total energy              =  -11590.18478729 Ry
     estimated scf accuracy    <       0.00102338 Ry

     total magnetization       =     4.42 Bohr mag/cell
     absolute magnetization    =     4.66 Bohr mag/cell

     iteration # 42     ecut=    60.00 Ry     beta= 0.20
     CG style diagonalization

---- Real-time Memory Report at c_bands before calling an iterative solver
             0 MiB given to the printing process from OS
             0 MiB allocation reported by mallinfo(arena+hblkhd)
        167088 MiB available memory on the node where the printing process lives
------------------
     ethr =  1.16E-07,  avg # of iterations =  3.0

     negative rho (up, down):  4.867E+00 4.836E+00


     ----------------------------------------------------------------

     Non-local correlation energy =              9.232157503486480

     ----------------------------------------------------------------


     total cpu time spent up to now is     8942.8 secs

     total energy              =  -11590.18476591 Ry
     estimated scf accuracy    <       0.00305720 Ry

     total magnetization       =     4.43 Bohr mag/cell
     absolute magnetization    =     4.67 Bohr mag/cell

     iteration # 43     ecut=    60.00 Ry     beta= 0.20
     CG style diagonalization

---- Real-time Memory Report at c_bands before calling an iterative solver
             0 MiB given to the printing process from OS
             0 MiB allocation reported by mallinfo(arena+hblkhd)
        167112 MiB available memory on the node where the printing process lives
------------------
     ethr =  1.16E-07,  avg # of iterations =  3.0

     negative rho (up, down):  4.867E+00 4.836E+00


     ----------------------------------------------------------------

     Non-local correlation energy =              9.232072676842670

     ----------------------------------------------------------------


     total cpu time spent up to now is     9117.1 secs

     total energy              =  -11590.18477925 Ry
     estimated scf accuracy    <       0.00071040 Ry

     total magnetization       =     4.43 Bohr mag/cell
     absolute magnetization    =     4.67 Bohr mag/cell

     iteration # 44     ecut=    60.00 Ry     beta= 0.20
     CG style diagonalization

---- Real-time Memory Report at c_bands before calling an iterative solver
             0 MiB given to the printing process from OS
             0 MiB allocation reported by mallinfo(arena+hblkhd)
        167098 MiB available memory on the node where the printing process lives
------------------
     ethr =  8.07E-08,  avg # of iterations =  3.0

     negative rho (up, down):  4.867E+00 4.836E+00


     ----------------------------------------------------------------

     Non-local correlation energy =              9.231992233081503

     ----------------------------------------------------------------


     total cpu time spent up to now is     9292.3 secs

     total energy              =  -11590.18476955 Ry
     estimated scf accuracy    <       0.00044201 Ry

     total magnetization       =     4.44 Bohr mag/cell
     absolute magnetization    =     4.69 Bohr mag/cell

     iteration # 45     ecut=    60.00 Ry     beta= 0.20
     CG style diagonalization

---- Real-time Memory Report at c_bands before calling an iterative solver
             0 MiB given to the printing process from OS
             0 MiB allocation reported by mallinfo(arena+hblkhd)
        167099 MiB available memory on the node where the printing process lives
------------------
     ethr =  5.02E-08,  avg # of iterations =  3.0

     negative rho (up, down):  4.867E+00 4.836E+00


     ----------------------------------------------------------------

     Non-local correlation energy =              9.231925722532404

     ----------------------------------------------------------------


     total cpu time spent up to now is     9467.3 secs

[...]
     atom    7 type  1   force =    -0.00465987   -0.00465990   -0.00000002
     atom    8 type  1   force =     0.00862255    0.00862254   -0.02559351
     atom    9 type  1   force =     0.01272192   -0.00000000    0.01272189
     atom   10 type  1   force =     0.02559352   -0.00862258    0.00862255
     atom   11 type  1   force =    -0.00465987   -0.00000002   -0.00465985
     atom   12 type  1   force =     0.00862257   -0.00862254    0.02559352
     atom   13 type  1   force =     0.03051731   -0.00000002    0.00000001
     atom   14 type  1   force =     0.02559344   -0.00862254   -0.00862253
     atom   15 type  1   force =    -0.00465988    0.00000000    0.00465987
     atom   16 type  1   force =    -0.00465986    0.00465986    0.00000001
     atom   17 type  1   force =     0.01272187   -0.00000001   -0.01272186
     atom   18 type  1   force =     0.00862253   -0.00862251   -0.02559337
     atom   19 type  1   force =     0.00862257   -0.02559349    0.00862255
     atom   20 type  1   force =     0.01272190   -0.01272193   -0.00000002
     atom   21 type  1   force =     0.00862253   -0.02559339   -0.00862251
     atom   22 type  1   force =     0.00000002    0.01272195    0.01272192
     atom   23 type  1   force =    -0.00000001   -0.00465991   -0.00465985
     atom   24 type  1   force =    -0.00862255    0.02559346    0.00862258
     atom   25 type  1   force =    -0.00862254    0.00862258    0.02559353
     atom   26 type  1   force =    -0.00000002    0.03051730   -0.00000002
     atom   27 type  1   force =     0.00000000   -0.00465988    0.00465985
     atom   28 type  1   force =    -0.00862256    0.02559348   -0.00862258
     atom   29 type  1   force =     0.00465984   -0.00465988   -0.00000001
     atom   30 type  1   force =     0.00000001    0.01272206   -0.01272200
     atom   31 type  1   force =    -0.00862257    0.00862259   -0.02559359
     atom   32 type  1   force =    -0.00000000   -0.00000000    0.03051728
     atom   33 type  1   force =     0.00000003    0.00465987   -0.00465985
     atom   34 type  1   force =     0.00465988    0.00000001   -0.00465987
     atom   35 type  1   force =    -0.00862256   -0.00862257    0.02559346
     atom   36 type  1   force =    -0.00000000   -0.00000002    0.00000000
     atom   37 type  1   force =     0.00000000    0.00465988    0.00465987
     atom   38 type  1   force =     0.00465985    0.00000000    0.00465987
     atom   39 type  1   force =     0.00465987    0.00465989   -0.00000001
     atom   40 type  1   force =    -0.00000000    0.00000000   -0.03051729
     atom   41 type  1   force =    -0.00862257   -0.00862257   -0.02559350
     atom   42 type  1   force =     0.00000001   -0.01272189    0.01272190
     atom   43 type  1   force =    -0.00862254   -0.02559343    0.00862255
     atom   44 type  1   force =     0.00000001   -0.03051731    0.00000002
     atom   45 type  1   force =    -0.00862255   -0.02559342   -0.00862255
     atom   46 type  1   force =     0.00000001   -0.01272168   -0.01272166
     atom   47 type  1   force =    -0.02559352    0.00862257    0.00862257
     atom   48 type  1   force =    -0.01272200    0.01272202    0.00000001
     atom   49 type  1   force =    -0.02559360    0.00862255   -0.00862259
     atom   50 type  1   force =    -0.01272191   -0.00000002    0.01272192
     atom   51 type  1   force =    -0.02559345   -0.00862257    0.00862253
     atom   52 type  1   force =    -0.03051726    0.00000000   -0.00000001
     atom   53 type  1   force =    -0.02559357   -0.00862257   -0.00862257
     atom   54 type  1   force =    -0.01272220   -0.00000001   -0.01272222
     atom   55 type  1   force =    -0.01272191   -0.01272198   -0.00000000
     The Hubbard contrib.    to forces
     atom    1 type  1   force =     0.00000000    0.00000000    0.00000000
     atom    2 type  1   force =     0.00000000    0.00000000    0.00000000
     atom    3 type  1   force =     0.00000000    0.00000000    0.00000000
     atom    4 type  1   force =     0.00000000    0.00000000    0.00000000
     atom    5 type  1   force =     0.00000000    0.00000000    0.00000000
     atom    6 type  1   force =     0.00000000    0.00000000    0.00000000
     atom    7 type  1   force =     0.00000000    0.00000000    0.00000000
     atom    8 type  1   force =     0.00000000    0.00000000    0.00000000
     atom    9 type  1   force =     0.00000000    0.00000000    0.00000000
     atom   10 type  1   force =     0.00000000    0.00000000    0.00000000
     atom   11 type  1   force =     0.00000000    0.00000000    0.00000000
     atom   12 type  1   force =     0.00000000    0.00000000    0.00000000
     atom   13 type  1   force =     0.00000000    0.00000000    0.00000000
     atom   14 type  1   force =     0.00000000    0.00000000    0.00000000
     atom   15 type  1   force =     0.00000000    0.00000000    0.00000000
     atom   16 type  1   force =     0.00000000    0.00000000    0.00000000
     atom   17 type  1   force =     0.00000000    0.00000000    0.00000000
     atom   18 type  1   force =     0.00000000    0.00000000    0.00000000
     atom   19 type  1   force =     0.00000000    0.00000000    0.00000000
     atom   20 type  1   force =     0.00000000    0.00000000    0.00000000
     atom   21 type  1   force =     0.00000000    0.00000000    0.00000000
     atom   22 type  1   force =     0.00000000    0.00000000    0.00000000
     atom   23 type  1   force =     0.00000000    0.00000000    0.00000000
     atom   24 type  1   force =     0.00000000    0.00000000    0.00000000
     atom   25 type  1   force =     0.00000000    0.00000000    0.00000000
     atom   26 type  1   force =     0.00000000    0.00000000    0.00000000
     atom   27 type  1   force =     0.00000000    0.00000000    0.00000000
     atom   28 type  1   force =     0.00000000    0.00000000    0.00000000
     atom   29 type  1   force =     0.00000000    0.00000000    0.00000000
     atom   30 type  1   force =     0.00000000    0.00000000    0.00000000
     atom   31 type  1   force =     0.00000000    0.00000000    0.00000000
     atom   32 type  1   force =     0.00000000    0.00000000    0.00000000
     atom   33 type  1   force =     0.00000000    0.00000000    0.00000000
     atom   34 type  1   force =     0.00000000    0.00000000    0.00000000
     atom   35 type  1   force =     0.00000000    0.00000000    0.00000000
     atom   36 type  1   force =     0.00000000    0.00000000    0.00000000
     atom   37 type  1   force =     0.00000000    0.00000000    0.00000000
     atom   38 type  1   force =     0.00000000    0.00000000    0.00000000
     atom   39 type  1   force =     0.00000000    0.00000000    0.00000000
     atom   40 type  1   force =     0.00000000    0.00000000    0.00000000
     atom   41 type  1   force =     0.00000000    0.00000000    0.00000000
     atom   42 type  1   force =     0.00000000    0.00000000    0.00000000
     atom   43 type  1   force =     0.00000000    0.00000000    0.00000000
     atom   44 type  1   force =     0.00000000    0.00000000    0.00000000
     atom   45 type  1   force =     0.00000000    0.00000000    0.00000000
     atom   46 type  1   force =     0.00000000    0.00000000    0.00000000
     atom   47 type  1   force =     0.00000000    0.00000000    0.00000000
     atom   48 type  1   force =     0.00000000    0.00000000    0.00000000
     atom   49 type  1   force =     0.00000000    0.00000000    0.00000000
     atom   50 type  1   force =     0.00000000    0.00000000    0.00000000
     atom   51 type  1   force =     0.00000000    0.00000000    0.00000000
     atom   52 type  1   force =     0.00000000    0.00000000    0.00000000
     atom   53 type  1   force =     0.00000000    0.00000000    0.00000000
     atom   54 type  1   force =     0.00000000    0.00000000    0.00000000
     atom   55 type  1   force =     0.00000000    0.00000000    0.00000000
     The SCF correction term to forces
     atom    1 type  1   force =     0.00002217   -0.00001020    0.00002660
     atom    2 type  1   force =    -0.00000924    0.00001509    0.00002874
     atom    3 type  1   force =    -0.00000736   -0.00000572    0.00003476
     atom    4 type  1   force =     0.00002190    0.00001587   -0.00000726
     atom    5 type  1   force =     0.00001669   -0.00000136   -0.00002883
     atom    6 type  1   force =    -0.00001631    0.00001048   -0.00003941
     atom    7 type  1   force =    -0.00001001   -0.00000258   -0.00001057
     atom    8 type  1   force =    -0.00001802    0.00001015   -0.00002713
     atom    9 type  1   force =     0.00000737   -0.00001358    0.00002367
     atom   10 type  1   force =     0.00001844   -0.00001475    0.00002091
     atom   11 type  1   force =     0.00000704   -0.00001162    0.00003593
     atom   12 type  1   force =     0.00000700   -0.00000531    0.00002447
     atom   13 type  1   force =     0.00003011   -0.00001531    0.00000341
     atom   14 type  1   force =     0.00002922   -0.00000649   -0.00000606
     atom   15 type  1   force =    -0.00000142    0.00001405   -0.00002839
     atom   16 type  1   force =     0.00002281   -0.00001094    0.00001511
     atom   17 type  1   force =     0.00001239    0.00000769   -0.00002322
     atom   18 type  1   force =     0.00000646    0.00001222   -0.00002852
     atom   19 type  1   force =     0.00001780   -0.00001370    0.00002529
     atom   20 type  1   force =     0.00002489   -0.00001388    0.00001403
     atom   21 type  1   force =     0.00002085   -0.00002074   -0.00000258
     atom   22 type  1   force =    -0.00001983    0.00000267    0.00002656
     atom   23 type  1   force =    -0.00003277    0.00000367    0.00002697
     atom   24 type  1   force =    -0.00003449   -0.00000099    0.00000642
     atom   25 type  1   force =    -0.00001739    0.00000311    0.00001287
     atom   26 type  1   force =    -0.00003763    0.00001193   -0.00001320
     atom   27 type  1   force =    -0.00004423    0.00000854   -0.00004115
     atom   28 type  1   force =    -0.00003214   -0.00001424   -0.00002184
     atom   29 type  1   force =    -0.00005460    0.00000502   -0.00002202
     atom   30 type  1   force =    -0.00002426   -0.00000525   -0.00002037
     atom   31 type  1   force =    -0.00002751   -0.00000288   -0.00000128
     atom   32 type  1   force =    -0.00000742    0.00000250    0.00002974
     atom   33 type  1   force =    -0.00000415   -0.00000547    0.00003451
     atom   34 type  1   force =    -0.00004081    0.00001699    0.00001116
     atom   35 type  1   force =    -0.00001287    0.00000477    0.00002088
     atom   36 type  1   force =    -0.00003312    0.00001721   -0.00000932
     atom   37 type  1   force =    -0.00002901    0.00001767   -0.00002072
     atom   38 type  1   force =    -0.00005945    0.00002924   -0.00003075
     atom   39 type  1   force =    -0.00005488    0.00001407   -0.00000975
     atom   40 type  1   force =    -0.00003327    0.00002920   -0.00002191
     atom   41 type  1   force =    -0.00004484    0.00003243   -0.00001362
     atom   42 type  1   force =     0.00000356   -0.00000551    0.00002276
     atom   43 type  1   force =    -0.00002348   -0.00001033    0.00001590
     atom   44 type  1   force =    -0.00000648   -0.00002511    0.00001353
     atom   45 type  1   force =    -0.00004299   -0.00000139   -0.00000964
     atom   46 type  1   force =    -0.00001686   -0.00000612   -0.00002515
     atom   47 type  1   force =    -0.00001722    0.00000165   -0.00001126
     atom   48 type  1   force =    -0.00001753   -0.00001415   -0.00001168
     atom   49 type  1   force =    -0.00000777   -0.00001135   -0.00001175
     atom   50 type  1   force =    -0.00001243    0.00000977    0.00000175
     atom   51 type  1   force =    -0.00002627    0.00001144   -0.00000404
     atom   52 type  1   force =    -0.00002183    0.00001574   -0.00002242
     atom   53 type  1   force =    -0.00002574    0.00002983   -0.00001362
     atom   54 type  1   force =    -0.00000924    0.00001503    0.00000689
     atom   55 type  1   force =    -0.00003025    0.00000651   -0.00000639

     Total force =     0.005171     Total SCF correction =     0.000270
     Energy error            =      9.4E-05 Ry
     Gradient error          =      8.9E-04 Ry/Bohr

     bfgs converged in  14 scf cycles and  13 bfgs steps
     (criteria: energy <  1.0E-04 Ry, force <  1.0E-03 Ry/Bohr)

     End of BFGS Geometry Optimization

     Final energy             =  -11590.3176227046 Ry

     File ./out/calc.bfgs deleted, as requested
Begin final coordinates

ATOMIC_POSITIONS (angstrom)
Pt              -3.9341628215       -1.9102532511       -1.9102532511
Pt              -1.9102532511       -3.9341628215       -1.9102532511
Pt              -1.9102532511       -1.9102532511       -3.9341628215
Pt              -3.8077109386       -3.8077109386       -0.0000000000
Pt              -3.9341628215       -1.9102532511        1.9102532511
Pt              -1.9102532511       -3.9341628215        1.9102532511
Pt              -1.9281447337       -1.9281447337       -0.0000000000
Pt              -1.9102532511       -1.9102532511        3.9341628215
Pt              -3.8077109386       -0.0000000000       -3.8077109386
Pt              -3.9341628215        1.9102532511       -1.9102532511
Pt              -1.9281447337        0.0000000000       -1.9281447337
Pt              -1.9102532511        1.9102532511       -3.9341628215
Pt              -4.1378984993       -0.0000000000       -0.0000000000
Pt              -3.9341628215        1.9102532511        1.9102532511
Pt              -1.9281447337       -0.0000000000        1.9281447337
Pt              -1.9281447337        1.9281447337       -0.0000000000
Pt              -3.8077109386        0.0000000000        3.8077109386
Pt              -1.9102532511        1.9102532511        3.9341628215
Pt              -1.9102532511        3.9341628215       -1.9102532511
Pt              -3.8077109386        3.8077109386        0.0000000000
Pt              -1.9102532511        3.9341628215        1.9102532511
Pt              -0.0000000000       -3.8077109386       -3.8077109386
Pt              -0.0000000000       -1.9281447337       -1.9281447337
Pt               1.9102532511       -3.9341628215       -1.9102532511
Pt               1.9102532511       -1.9102532511       -3.9341628215
Pt              -0.0000000000       -4.1378984993        0.0000000000
Pt               0.0000000000       -1.9281447337        1.9281447337
Pt               1.9102532511       -3.9341628215        1.9102532511
Pt               1.9281447337       -1.9281447337       -0.0000000000
Pt              -0.0000000000       -3.8077109386        3.8077109386
Pt               1.9102532511       -1.9102532511        3.9341628215
Pt               0.0000000000       -0.0000000000       -4.1378984993
Pt               0.0000000000        1.9281447337       -1.9281447337
Pt               1.9281447337        0.0000000000       -1.9281447337
Pt               1.9102532511        1.9102532511       -3.9341628215
Pt               0.0000000000       -0.0000000000       -0.0000000000
Pt               0.0000000000        1.9281447337        1.9281447337
Pt               1.9281447337       -0.0000000000        1.9281447337
Pt               1.9281447337        1.9281447337       -0.0000000000
Pt              -0.0000000000       -0.0000000000        4.1378984993
Pt               1.9102532511        1.9102532511        3.9341628215
Pt              -0.0000000000        3.8077109386       -3.8077109386
Pt               1.9102532511        3.9341628215       -1.9102532511
Pt               0.0000000000        4.1378984993        0.0000000000
Pt               1.9102532511        3.9341628215        1.9102532511
Pt              -0.0000000000        3.8077109386        3.8077109386
Pt               3.9341628215       -1.9102532511       -1.9102532511
Pt               3.8077109386       -3.8077109386        0.0000000000
Pt               3.9341628215       -1.9102532511        1.9102532511
Pt               3.8077109386        0.0000000000       -3.8077109386
Pt               3.9341628215        1.9102532511       -1.9102532511
Pt               4.1378984993       -0.0000000000       -0.0000000000
Pt               3.9341628215        1.9102532511        1.9102532511
Pt               3.8077109386        0.0000000000        3.8077109386
Pt               3.8077109386        3.8077109386        0.0000000000
End final coordinates



     Writing all to output data dir ./out/calc.save/ :
     XML data file, charge density, pseudopotentials, collected wavefunctions
 
     init_run     :     15.16s CPU     16.15s WALL (       1 calls)
     electrons    : 124010.81s CPU 126499.57s WALL (      14 calls)
     update_pot   :     30.19s CPU     33.65s WALL (      13 calls)
     forces       :     97.42s CPU    104.54s WALL (      14 calls)

     Called by init_run:
     wfcinit      :      8.66s CPU      9.17s WALL (       1 calls)
     wfcinit:atom :      0.06s CPU      0.08s WALL (       2 calls)
     wfcinit:wfcr :      8.28s CPU      8.73s WALL (       2 calls)
     potinit      :      3.36s CPU      3.67s WALL (       1 calls)
     hinit0       :      0.81s CPU      0.83s WALL (       1 calls)

     Called by electrons:
     c_bands      : 118875.24s CPU 120908.91s WALL (     655 calls)
     sum_band     :   3063.43s CPU   3247.89s WALL (     655 calls)
     v_of_rho     :   1480.48s CPU   1654.38s WALL (     666 calls)
     v_h          :     20.83s CPU     22.72s WALL (     666 calls)
     v_xc         :   1490.13s CPU   1665.99s WALL (     680 calls)
     newd         :    523.81s CPU    595.29s WALL (     666 calls)
     mix_rho      :     61.74s CPU     66.34s WALL (     655 calls)

     Called by c_bands:
     init_us_2    :    136.71s CPU    138.38s WALL (    2650 calls)
     rcgdiagg     : 114489.67s CPU 116289.76s WALL (    1340 calls)
     wfcrot       :   4273.29s CPU   4502.69s WALL (    1308 calls)

     Called by sum_band:
     sum_band:wei :      1.11s CPU      1.12s WALL (     655 calls)
     sum_band:loo :   2289.34s CPU   2398.15s WALL (     655 calls)
     sum_band:buf :     26.06s CPU     26.40s WALL (    1310 calls)
     sum_band:ini :     67.69s CPU     68.46s WALL (    1310 calls)
     sum_band:cal :    384.85s CPU    387.12s WALL (    1310 calls)
     sum_band:bec :      3.01s CPU      3.04s WALL (    1310 calls)
     addusdens    :    736.54s CPU    808.87s WALL (     655 calls)
                                        0.00s GPU  (     655 calls)
     addusd:skk   :     19.87s CPU     35.57s WALL (     655 calls)
                                        0.00s GPU  (     655 calls)

     Called by *cgdiagg:
     h_psi        :  52307.86s CPU  53765.51s WALL ( 1546898 calls)
     s_psi        :  36236.95s CPU  36544.87s WALL ( 3092488 calls)

     Called by h_psi:
     h_psi:calbec :  19979.20s CPU  20136.32s WALL ( 1546898 calls)
     vloc_psi     :  14057.18s CPU  15209.08s WALL ( 1546898 calls)
     add_vuspsi   :  18202.20s CPU  18354.29s WALL ( 1546898 calls)
     hs_1psi      :  67159.17s CPU  68565.58s WALL ( 1545590 calls)
     s_1psi       :  36732.47s CPU  37035.51s WALL ( 1545590 calls)

     General routines
     calbec       :  39270.72s CPU  39589.58s WALL ( 3093910 calls)
     fft          :    789.72s CPU    912.79s WALL (   46200 calls)
     ffts         :      9.82s CPU     11.55s WALL (    1987 calls)
     fftw         :   8858.32s CPU   9999.06s WALL ( 4127908 calls)
     interpolate  :     33.58s CPU     38.21s WALL (    1332 calls)
 
     Parallel routines
 
     PWSCF        :   1d10h29m CPU   1d11h11m WALL

 
   This run was terminated on:  18:52:33  23Jan2025            

=------------------------------------------------------------------------------=
   JOB DONE.
=------------------------------------------------------------------------------=
