
     Program PWSCF v.7.3.1 starts on 17Jan2025 at  4:10: 9 

     This program is part of the open-source Quantum ESPRESSO suite
     for quantum simulation of materials; please cite
         "P. Giannozzi et al., J. Phys.:Condens. Matter 21 395502 (2009);
         "P. Giannozzi et al., J. Phys.:Condens. Matter 29 465901 (2017);
         "P. Giannozzi et al., J. Chem. Phys. 152 154105 (2020);
          URL http://www.quantum-espresso.org", 
     in publications or presentations arising from this work. More details at
     http://www.quantum-espresso.org/quote

     Parallel version (MPI), running on    36 processors

     MPI processes distributed on     1 nodes
     183820 MiB available memory on the printing compute node when the environment starts
 
     Reading input from espresso.pwi
Warning: card   &CELL ignored
Warning: card      CELL_DOFREE = 'IBRAV' ignored
Warning: card / ignored

     Current dimensions of program PWSCF are:
     Max number of different atomic species (ntypx) = 10
     Max number of k-points (npk) =  40000
     Max angular momentum in pseudopotentials (lmaxx) =  4

     IMPORTANT: XC functional enforced from input :
     Exchange-correlation= RVV10
                           (   1   4  13   4  26   0   0)
     Any further DFT definition will be discarded
     Please, verify this is what you really want


     gamma-point specific algorithms are used
     Message from routine setup:
     using ibrav=0 with symmetry is DISCOURAGED, use correct ibrav instead
 
     R & G space division:  proc/nbgrp/npool/nimage =      36
     Subspace diagonalization in iterative solution of the eigenvalue problem:
     one sub-group per band group will be used
     scalapack distributed-memory algorithm (size of sub-group:  5*  5 procs)

 
     Parallelization info
     --------------------
     sticks:   dense  smooth     PW     G-vecs:    dense   smooth      PW
     Min        1227     612    151               194140    68620    8576
     Max        1230     614    154               194152    68634    8590
     Sum       44213   22097   5513              6989249  2470567  308947
 
     Using Slab Decomposition
 

     Title: 
     calc                                                                       


     bravais-lattice index     =            0
     lattice parameter (alat)  =      34.0151  a.u.
     unit-cell volume          =   39356.2868 (a.u.)^3
     number of atoms/cell      =           56
     number of atomic types    =            2
     number of electrons       =       881.00
     number of Kohn-Sham states=          529
     kinetic-energy cutoff     =      60.0000  Ry
     charge density cutoff     =     480.0000  Ry
     scf convergence threshold =      1.0E-06
     mixing beta               =       0.2000
     number of iterations used =            8  plain     mixing
     energy convergence thresh.=      1.0E-04
     force convergence thresh. =      1.0E-03
     Exchange-correlation= RVV10
                           (   1   4  13   4  26   0   0)
     nstep                     =        10000


     celldm(1)=  34.015070  celldm(2)=   0.000000  celldm(3)=   0.000000
     celldm(4)=   0.000000  celldm(5)=   0.000000  celldm(6)=   0.000000

     crystal axes: (cart. coord. in units of alat)
               a(1) = (   1.000000   0.000000   0.000000 )  
               a(2) = (   0.000000   1.000000   0.000000 )  
               a(3) = (   0.000000   0.000000   1.000000 )  

     reciprocal axes: (cart. coord. in units 2 pi/alat)
               b(1) = (  1.000000  0.000000  0.000000 )  
               b(2) = (  0.000000  1.000000  0.000000 )  
               b(3) = (  0.000000  0.000000  1.000000 )  


     PseudoPot. # 1 for Pt read from file:
     /home/james/work/espresso/SSSP_1.3.0_PBE_efficiency/pt_pbe_v1.4.uspp.F.UPF
     MD5 check sum: f09d6de1a584b5a045c4fc126da2d0c4
     Pseudo is Ultrasoft + core correction, Zval = 16.0
     Generated by new atomic code, or converted to UPF format
     Using radial grid of  985 points,  6 beta functions with: 
                l(1) =   0
                l(2) =   0
                l(3) =   1
                l(4) =   1
                l(5) =   2
                l(6) =   2
     Q(r) pseudized with  8 coefficients,  rinner =    1.300   1.300   1.300
                                                       1.300   1.300

     PseudoPot. # 2 for H  read from file:
     /home/james/work/espresso/SSSP_1.3.0_PBE_efficiency/H.pbe-rrkjus_psl.1.0.0.UPF
     MD5 check sum: f52b6d4d1c606e5624b1dc7b2218f220
     Pseudo is Ultrasoft, Zval =  1.0
     Generated using "atomic" code by A. Dal Corso  v.5.1
     Using radial grid of  929 points,  2 beta functions with: 
                l(1) =   0
                l(2) =   0
     Q(r) pseudized with 0 coefficients 


     atomic species   valence    mass     pseudopotential
     Pt               16.00   195.08400     Pt( 1.00)
     H                 1.00     1.00800     H ( 1.00)

     Starting magnetic structure 
     atomic species   magnetization
     Pt              0.010
     H               0.020

      2 Sym. Ops. (no inversion) found


                                    s                        frac. trans.

      isym =  1     identity                                     

 cryst.   s( 1) = (     1          0          0      )
                  (     0          1          0      )
                  (     0          0          1      )

 cart.    s( 1) = (  1.0000000  0.0000000  0.0000000 )
                  (  0.0000000  1.0000000  0.0000000 )
                  (  0.0000000  0.0000000  1.0000000 )


      isym =  2     inv. 180 deg rotation - cart. axis [0,1,-1]  

 cryst.   s( 2) = (     1          0          0      )
                  (     0          0          1      )
                  (     0          1          0      )

 cart.    s( 2) = (  1.0000000  0.0000000  0.0000000 )
                  (  0.0000000  0.0000000  1.0000000 )
                  (  0.0000000  1.0000000  0.0000000 )


   Cartesian axes

     site n.     atom                  positions (alat units)
         1        Pt     tau(   1) = (  -0.2177778  -0.1088889  -0.1088889  )
         2        Pt     tau(   2) = (  -0.1088889  -0.2177778  -0.1088889  )
         3        Pt     tau(   3) = (  -0.1088889  -0.1088889  -0.2177778  )
         4        Pt     tau(   4) = (  -0.2177778  -0.2177778   0.0000000  )
         5        Pt     tau(   5) = (  -0.2177778  -0.1088889   0.1088889  )
         6        Pt     tau(   6) = (  -0.1088889  -0.2177778   0.1088889  )
         7        Pt     tau(   7) = (  -0.1088889  -0.1088889   0.0000000  )
         8        Pt     tau(   8) = (  -0.1088889  -0.1088889   0.2177778  )
         9        Pt     tau(   9) = (  -0.2177778   0.0000000  -0.2177778  )
        10        Pt     tau(  10) = (  -0.2177778   0.1088889  -0.1088889  )
        11        Pt     tau(  11) = (  -0.1088889   0.0000000  -0.1088889  )
        12        Pt     tau(  12) = (  -0.1088889   0.1088889  -0.2177778  )
        13        Pt     tau(  13) = (  -0.2177778   0.0000000   0.0000000  )
        14        Pt     tau(  14) = (  -0.2177778   0.1088889   0.1088889  )
        15        Pt     tau(  15) = (  -0.1088889   0.0000000   0.1088889  )
        16        Pt     tau(  16) = (  -0.1088889   0.1088889   0.0000000  )
        17        Pt     tau(  17) = (  -0.2177778   0.0000000   0.2177778  )
        18        Pt     tau(  18) = (  -0.1088889   0.1088889   0.2177778  )
        19        Pt     tau(  19) = (  -0.1088889   0.2177778  -0.1088889  )
        20        Pt     tau(  20) = (  -0.2177778   0.2177778   0.0000000  )
        21        Pt     tau(  21) = (  -0.1088889   0.2177778   0.1088889  )
        22        Pt     tau(  22) = (   0.0000000  -0.2177778  -0.2177778  )
        23        Pt     tau(  23) = (   0.0000000  -0.1088889  -0.1088889  )
        24        Pt     tau(  24) = (   0.1088889  -0.2177778  -0.1088889  )
        25        Pt     tau(  25) = (   0.1088889  -0.1088889  -0.2177778  )
        26        Pt     tau(  26) = (   0.0000000  -0.2177778   0.0000000  )
        27        Pt     tau(  27) = (   0.0000000  -0.1088889   0.1088889  )
        28        Pt     tau(  28) = (   0.1088889  -0.2177778   0.1088889  )
        29        Pt     tau(  29) = (   0.1088889  -0.1088889   0.0000000  )
        30        Pt     tau(  30) = (   0.0000000  -0.2177778   0.2177778  )
        31        Pt     tau(  31) = (   0.1088889  -0.1088889   0.2177778  )
        32        Pt     tau(  32) = (   0.0000000   0.0000000  -0.2177778  )
        33        Pt     tau(  33) = (   0.0000000   0.1088889  -0.1088889  )
        34        Pt     tau(  34) = (   0.1088889   0.0000000  -0.1088889  )
        35        Pt     tau(  35) = (   0.1088889   0.1088889  -0.2177778  )
        36        Pt     tau(  36) = (   0.0000000   0.0000000   0.0000000  )
        37        Pt     tau(  37) = (   0.0000000   0.1088889   0.1088889  )
        38        Pt     tau(  38) = (   0.1088889   0.0000000   0.1088889  )
        39        Pt     tau(  39) = (   0.1088889   0.1088889   0.0000000  )
        40        Pt     tau(  40) = (   0.0000000   0.0000000   0.2177778  )
        41        Pt     tau(  41) = (   0.1088889   0.1088889   0.2177778  )
        42        Pt     tau(  42) = (   0.0000000   0.2177778  -0.2177778  )
        43        Pt     tau(  43) = (   0.1088889   0.2177778  -0.1088889  )
        44        Pt     tau(  44) = (   0.0000000   0.2177778   0.0000000  )
        45        Pt     tau(  45) = (   0.1088889   0.2177778   0.1088889  )
        46        Pt     tau(  46) = (   0.0000000   0.2177778   0.2177778  )
        47        Pt     tau(  47) = (   0.2177778  -0.1088889  -0.1088889  )
        48        Pt     tau(  48) = (   0.2177778  -0.2177778   0.0000000  )
        49        Pt     tau(  49) = (   0.2177778  -0.1088889   0.1088889  )
        50        Pt     tau(  50) = (   0.2177778   0.0000000  -0.2177778  )
        51        Pt     tau(  51) = (   0.2177778   0.1088889  -0.1088889  )
        52        Pt     tau(  52) = (   0.2177778   0.0000000   0.0000000  )
        53        Pt     tau(  53) = (   0.2177778   0.1088889   0.1088889  )
        54        Pt     tau(  54) = (   0.2177778   0.0000000   0.2177778  )
        55        Pt     tau(  55) = (   0.2177778   0.2177778   0.0000000  )
        56        H      tau(  56) = (  -0.2972200  -0.0722402  -0.0722402  )

   Crystallographic axes

     site n.     atom                  positions (cryst. coord.)
         1        Pt     tau(   1) = ( -0.2177778 -0.1088889 -0.1088889  )
         2        Pt     tau(   2) = ( -0.1088889 -0.2177778 -0.1088889  )
         3        Pt     tau(   3) = ( -0.1088889 -0.1088889 -0.2177778  )
         4        Pt     tau(   4) = ( -0.2177778 -0.2177778  0.0000000  )
         5        Pt     tau(   5) = ( -0.2177778 -0.1088889  0.1088889  )
         6        Pt     tau(   6) = ( -0.1088889 -0.2177778  0.1088889  )
         7        Pt     tau(   7) = ( -0.1088889 -0.1088889  0.0000000  )
         8        Pt     tau(   8) = ( -0.1088889 -0.1088889  0.2177778  )
         9        Pt     tau(   9) = ( -0.2177778  0.0000000 -0.2177778  )
        10        Pt     tau(  10) = ( -0.2177778  0.1088889 -0.1088889  )
        11        Pt     tau(  11) = ( -0.1088889  0.0000000 -0.1088889  )
        12        Pt     tau(  12) = ( -0.1088889  0.1088889 -0.2177778  )
        13        Pt     tau(  13) = ( -0.2177778  0.0000000  0.0000000  )
        14        Pt     tau(  14) = ( -0.2177778  0.1088889  0.1088889  )
        15        Pt     tau(  15) = ( -0.1088889  0.0000000  0.1088889  )
        16        Pt     tau(  16) = ( -0.1088889  0.1088889  0.0000000  )
        17        Pt     tau(  17) = ( -0.2177778  0.0000000  0.2177778  )
        18        Pt     tau(  18) = ( -0.1088889  0.1088889  0.2177778  )
        19        Pt     tau(  19) = ( -0.1088889  0.2177778 -0.1088889  )
        20        Pt     tau(  20) = ( -0.2177778  0.2177778  0.0000000  )
        21        Pt     tau(  21) = ( -0.1088889  0.2177778  0.1088889  )
        22        Pt     tau(  22) = (  0.0000000 -0.2177778 -0.2177778  )
        23        Pt     tau(  23) = (  0.0000000 -0.1088889 -0.1088889  )
        24        Pt     tau(  24) = (  0.1088889 -0.2177778 -0.1088889  )
        25        Pt     tau(  25) = (  0.1088889 -0.1088889 -0.2177778  )
        26        Pt     tau(  26) = (  0.0000000 -0.2177778  0.0000000  )
        27        Pt     tau(  27) = (  0.0000000 -0.1088889  0.1088889  )
        28        Pt     tau(  28) = (  0.1088889 -0.2177778  0.1088889  )
        29        Pt     tau(  29) = (  0.1088889 -0.1088889  0.0000000  )
        30        Pt     tau(  30) = (  0.0000000 -0.2177778  0.2177778  )
        31        Pt     tau(  31) = (  0.1088889 -0.1088889  0.2177778  )
        32        Pt     tau(  32) = (  0.0000000  0.0000000 -0.2177778  )
        33        Pt     tau(  33) = (  0.0000000  0.1088889 -0.1088889  )
        34        Pt     tau(  34) = (  0.1088889  0.0000000 -0.1088889  )
        35        Pt     tau(  35) = (  0.1088889  0.1088889 -0.2177778  )
        36        Pt     tau(  36) = (  0.0000000  0.0000000  0.0000000  )
        37        Pt     tau(  37) = (  0.0000000  0.1088889  0.1088889  )
        38        Pt     tau(  38) = (  0.1088889  0.0000000  0.1088889  )
        39        Pt     tau(  39) = (  0.1088889  0.1088889  0.0000000  )
        40        Pt     tau(  40) = (  0.0000000  0.0000000  0.2177778  )
        41        Pt     tau(  41) = (  0.1088889  0.1088889  0.2177778  )
        42        Pt     tau(  42) = (  0.0000000  0.2177778 -0.2177778  )
        43        Pt     tau(  43) = (  0.1088889  0.2177778 -0.1088889  )
        44        Pt     tau(  44) = (  0.0000000  0.2177778  0.0000000  )
        45        Pt     tau(  45) = (  0.1088889  0.2177778  0.1088889  )
        46        Pt     tau(  46) = (  0.0000000  0.2177778  0.2177778  )
        47        Pt     tau(  47) = (  0.2177778 -0.1088889 -0.1088889  )
        48        Pt     tau(  48) = (  0.2177778 -0.2177778  0.0000000  )
        49        Pt     tau(  49) = (  0.2177778 -0.1088889  0.1088889  )
        50        Pt     tau(  50) = (  0.2177778  0.0000000 -0.2177778  )
        51        Pt     tau(  51) = (  0.2177778  0.1088889 -0.1088889  )
        52        Pt     tau(  52) = (  0.2177778  0.0000000  0.0000000  )
        53        Pt     tau(  53) = (  0.2177778  0.1088889  0.1088889  )
        54        Pt     tau(  54) = (  0.2177778  0.0000000  0.2177778  )
        55        Pt     tau(  55) = (  0.2177778  0.2177778  0.0000000  )
        56        H      tau(  56) = ( -0.2972200 -0.0722402 -0.0722402  )

     number of k points=     1  Gaussian smearing, width (Ry)=  0.0100
                       cart. coord. in units 2pi/alat
        k(    1) = (   0.0000000   0.0000000   0.0000000), wk =   1.0000000

                       cryst. coord.
        k(    1) = (   0.0000000   0.0000000   0.0000000), wk =   1.0000000

     Dense  grid:  3494625 G-vectors     FFT dimensions: ( 240, 240, 240)

     Smooth grid:  1235284 G-vectors     FFT dimensions: ( 180, 180, 180)

     Dynamical RAM for                 wfc:      34.63 MB

     Dynamical RAM for     wfc (w. buffer):     103.89 MB

     Dynamical RAM for           str. fact:       2.96 MB

     Dynamical RAM for           local pot:       0.00 MB

     Dynamical RAM for          nlocal pot:      64.94 MB

     Dynamical RAM for                qrad:       3.52 MB

     Dynamical RAM for          rho,v,vnew:      27.34 MB

     Dynamical RAM for               rhoin:       9.11 MB

     Dynamical RAM for            rho*nmix:      47.40 MB

     Dynamical RAM for           G-vectors:       5.82 MB

     Dynamical RAM for          h,s,v(r/c):       0.25 MB

     Dynamical RAM for          <psi|beta>:       4.00 MB

     Dynamical RAM for      wfcinit/wfcrot:      75.67 MB

     Dynamical RAM for           addusdens:     358.47 MB

     Dynamical RAM for          addusforce:     518.87 MB

     Estimated static dynamical RAM per process >     240.48 MB

     Estimated max dynamical RAM per process >     806.75 MB

     Estimated total dynamical RAM >      28.36 GB

     Atomic positions and unit cell read from directory:
     ./out/calc.save/
     Message from routine qexsd_readschema :
     xml data file ./out/calc.save/data-file-schema.xml not found
     Nothing found: using input atomic positions and unit cell

     Generating pointlists ...
     new r_m :   0.0391 (alat units)  1.3309 (a.u.) for type    1
     new r_m :   0.0391 (alat units)  1.3309 (a.u.) for type    2
     Cannot read rho : file not found

     Initial potential from superposition of free atoms

     starting charge     853.4994, renormalised to     881.0000

     negative rho (up, down):  5.272E+00 5.168E+00


---------------------------------------------------------------------------------
Carrying out rVV10 run using the following parameters:
Nqs =      20    Nr_points =    1024   r_max =   100.000
b_value =  6.30000    beta =  0.00901
     q_mesh =  0.00010000  0.00030000  0.00058939  0.00100810
               0.00161396  0.00249058  0.00375900  0.00559430
               0.00824984  0.01209221  0.01765183  0.02569619
               0.03733578  0.05417739  0.07854596  0.11380545
               0.16482331  0.23864234  0.34545298  0.50000000

Gradients computed in Reciprocal space

---------------------------------------------------------------------------------




     ----------------------------------------------------------------

     Non-local correlation energy =              9.743020384309480

     ----------------------------------------------------------------

     Message from routine qexsd_readschema :
     xml data file ./out/calc.save/data-file-schema.xml not found
     Cannot read wfcs: file not found
     Starting wfcs are  661 randomized atomic wfcs

     total cpu time spent up to now is       16.8 secs

     Self-consistent Calculation

     iteration #  1     ecut=    60.00 Ry     beta= 0.20
     CG style diagonalization

---- Real-time Memory Report at c_bands before calling an iterative solver
             0 MiB given to the printing process from OS
             0 MiB allocation reported by mallinfo(arena+hblkhd)
        173006 MiB available memory on the node where the printing process lives
------------------
     c_bands:  3 eigenvalues not converged
     ethr =  1.00E-05,  avg # of iterations = 20.9

     negative rho (up, down):  5.080E+00 4.992E+00


     ----------------------------------------------------------------

     Non-local correlation energy =              9.363643175907386

     ----------------------------------------------------------------


     total cpu time spent up to now is     1576.6 secs

     total energy              =  -11541.35110300 Ry
     estimated scf accuracy    <     230.99207436 Ry

     total magnetization       =     2.73 Bohr mag/cell
     absolute magnetization    =     3.25 Bohr mag/cell

     iteration #  2     ecut=    60.00 Ry     beta= 0.20
     CG style diagonalization

---- Real-time Memory Report at c_bands before calling an iterative solver
             0 MiB given to the printing process from OS
             0 MiB allocation reported by mallinfo(arena+hblkhd)
        171387 MiB available memory on the node where the printing process lives
------------------
     ethr =  1.00E-02,  avg # of iterations =  4.8

     negative rho (up, down):  5.049E+00 4.967E+00


     ----------------------------------------------------------------

     Non-local correlation energy =              9.321101151913226

     ----------------------------------------------------------------


     total cpu time spent up to now is     1900.2 secs

     total energy              =  -11559.26951999 Ry
     estimated scf accuracy    <     499.33352162 Ry

     total magnetization       =     0.48 Bohr mag/cell
     absolute magnetization    =     5.33 Bohr mag/cell

     iteration #  3     ecut=    60.00 Ry     beta= 0.20
     CG style diagonalization

---- Real-time Memory Report at c_bands before calling an iterative solver
             0 MiB given to the printing process from OS
             0 MiB allocation reported by mallinfo(arena+hblkhd)
        171274 MiB available memory on the node where the printing process lives
------------------
     ethr =  1.00E-02,  avg # of iterations =  3.6

     negative rho (up, down):  4.999E+00 4.926E+00


     ----------------------------------------------------------------

     Non-local correlation energy =              9.275637320682225

     ----------------------------------------------------------------


     total cpu time spent up to now is     2130.1 secs

     total energy              =  -11586.76191413 Ry
     estimated scf accuracy    <      17.43856147 Ry

     total magnetization       =     5.11 Bohr mag/cell
     absolute magnetization    =     6.91 Bohr mag/cell

     iteration #  4     ecut=    60.00 Ry     beta= 0.20
     CG style diagonalization

---- Real-time Memory Report at c_bands before calling an iterative solver
             0 MiB given to the printing process from OS
             0 MiB allocation reported by mallinfo(arena+hblkhd)
        171146 MiB available memory on the node where the printing process lives
------------------
     c_bands:  1 eigenvalues not converged
     ethr =  1.98E-03,  avg # of iterations =  4.0

     negative rho (up, down):  4.987E+00 4.916E+00


     ----------------------------------------------------------------

     Non-local correlation energy =              9.266325341682167

     ----------------------------------------------------------------


     total cpu time spent up to now is     2393.4 secs

     total energy              =  -11586.68449885 Ry
     estimated scf accuracy    <     241.16117914 Ry

     total magnetization       =     2.12 Bohr mag/cell
     absolute magnetization    =     3.02 Bohr mag/cell

     iteration #  5     ecut=    60.00 Ry     beta= 0.20
     CG style diagonalization

---- Real-time Memory Report at c_bands before calling an iterative solver
             0 MiB given to the printing process from OS
             0 MiB allocation reported by mallinfo(arena+hblkhd)
        171069 MiB available memory on the node where the printing process lives
------------------
     ethr =  1.98E-03,  avg # of iterations =  3.0

     negative rho (up, down):  4.978E+00 4.909E+00


     ----------------------------------------------------------------

     Non-local correlation energy =              9.261480604690599

     ----------------------------------------------------------------


     total cpu time spent up to now is     2572.9 secs

     total energy              =  -11590.90038020 Ry
     estimated scf accuracy    <      20.57587464 Ry

     total magnetization       =     3.63 Bohr mag/cell
     absolute magnetization    =     3.98 Bohr mag/cell

     iteration #  6     ecut=    60.00 Ry     beta= 0.20
     CG style diagonalization

---- Real-time Memory Report at c_bands before calling an iterative solver
             0 MiB given to the printing process from OS
             0 MiB allocation reported by mallinfo(arena+hblkhd)
        170961 MiB available memory on the node where the printing process lives
------------------
     ethr =  1.98E-03,  avg # of iterations =  3.0

     negative rho (up, down):  4.958E+00 4.895E+00


     ----------------------------------------------------------------

     Non-local correlation energy =              9.251875722802808

     ----------------------------------------------------------------


     total cpu time spent up to now is     2749.0 secs

     total energy              =  -11590.43376637 Ry
     estimated scf accuracy    <      22.00066335 Ry

     total magnetization       =     3.59 Bohr mag/cell
     absolute magnetization    =     3.87 Bohr mag/cell

     iteration #  7     ecut=    60.00 Ry     beta= 0.20
     CG style diagonalization

---- Real-time Memory Report at c_bands before calling an iterative solver
             0 MiB given to the printing process from OS
             0 MiB allocation reported by mallinfo(arena+hblkhd)
        170878 MiB available memory on the node where the printing process lives
------------------
     ethr =  1.98E-03,  avg # of iterations =  3.0

     negative rho (up, down):  4.940E+00 4.882E+00


     ----------------------------------------------------------------

     Non-local correlation energy =              9.244262479849713

     ----------------------------------------------------------------


     total cpu time spent up to now is     2925.7 secs

     total energy              =  -11590.28533336 Ry
     estimated scf accuracy    <      55.85816719 Ry

     total magnetization       =     3.14 Bohr mag/cell
     absolute magnetization    =     3.41 Bohr mag/cell

     iteration #  8     ecut=    60.00 Ry     beta= 0.20
     CG style diagonalization

---- Real-time Memory Report at c_bands before calling an iterative solver
             0 MiB given to the printing process from OS
             0 MiB allocation reported by mallinfo(arena+hblkhd)
        170771 MiB available memory on the node where the printing process lives
------------------
     ethr =  1.98E-03,  avg # of iterations =  3.0

     negative rho (up, down):  4.926E+00 4.872E+00


     ----------------------------------------------------------------

     Non-local correlation energy =              9.239403524369219

     ----------------------------------------------------------------


     total cpu time spent up to now is     3101.6 secs

     total energy              =  -11590.99479497 Ry
     estimated scf accuracy    <      25.91618376 Ry

     total magnetization       =     3.08 Bohr mag/cell
     absolute magnetization    =     3.33 Bohr mag/cell

     iteration #  9     ecut=    60.00 Ry     beta= 0.20
     CG style diagonalization

---- Real-time Memory Report at c_bands before calling an iterative solver
             0 MiB given to the printing process from OS
             0 MiB allocation reported by mallinfo(arena+hblkhd)
        170695 MiB available memory on the node where the printing process lives
------------------
     ethr =  1.98E-03,  avg # of iterations =  3.0

     negative rho (up, down):  4.920E+00 4.868E+00


     ----------------------------------------------------------------

     Non-local correlation energy =              9.238023165843414

     ----------------------------------------------------------------


     total cpu time spent up to now is     3277.7 secs

     total energy              =  -11591.21810537 Ry
     estimated scf accuracy    <      11.71634698 Ry

     total magnetization       =     3.33 Bohr mag/cell
     absolute magnetization    =     3.56 Bohr mag/cell

     iteration # 10     ecut=    60.00 Ry     beta= 0.20
     CG style diagonalization

---- Real-time Memory Report at c_bands before calling an iterative solver
             0 MiB given to the printing process from OS
             0 MiB allocation reported by mallinfo(arena+hblkhd)
        170607 MiB available memory on the node where the printing process lives
------------------
     ethr =  1.33E-03,  avg # of iterations =  3.0

     negative rho (up, down):  4.913E+00 4.864E+00


     ----------------------------------------------------------------

     Non-local correlation energy =              9.236439118020581

     ----------------------------------------------------------------


     total cpu time spent up to now is     3453.6 secs

     total energy              =  -11591.40151068 Ry
     estimated scf accuracy    <       2.50547817 Ry

     total magnetization       =     3.58 Bohr mag/cell
     absolute magnetization    =     3.78 Bohr mag/cell

     iteration # 11     ecut=    60.00 Ry     beta= 0.20
     CG style diagonalization

---- Real-time Memory Report at c_bands before calling an iterative solver
             0 MiB given to the printing process from OS
             0 MiB allocation reported by mallinfo(arena+hblkhd)
        170582 MiB available memory on the node where the printing process lives
------------------
     ethr =  2.84E-04,  avg # of iterations =  3.1

     negative rho (up, down):  4.910E+00 4.861E+00


     ----------------------------------------------------------------

     Non-local correlation energy =              9.236212179274624

     ----------------------------------------------------------------


     total cpu time spent up to now is     3641.7 secs

     total energy              =  -11591.38465192 Ry
     estimated scf accuracy    <       3.34791991 Ry

     total magnetization       =     3.56 Bohr mag/cell
     absolute magnetization    =     3.76 Bohr mag/cell

     iteration # 12     ecut=    60.00 Ry     beta= 0.20
     CG style diagonalization

---- Real-time Memory Report at c_bands before calling an iterative solver
             0 MiB given to the printing process from OS
             0 MiB allocation reported by mallinfo(arena+hblkhd)
        170587 MiB available memory on the node where the printing process lives
------------------
     ethr =  2.84E-04,  avg # of iterations =  3.0

     negative rho (up, down):  4.903E+00 4.857E+00


     ----------------------------------------------------------------

     Non-local correlation energy =              9.237067706946485

     ----------------------------------------------------------------


     total cpu time spent up to now is     3817.7 secs

     total energy              =  -11591.32941098 Ry
     estimated scf accuracy    <       3.47591108 Ry

     total magnetization       =     3.65 Bohr mag/cell
     absolute magnetization    =     3.86 Bohr mag/cell

     iteration # 13     ecut=    60.00 Ry     beta= 0.20
     CG style diagonalization

---- Real-time Memory Report at c_bands before calling an iterative solver
             0 MiB given to the printing process from OS
             0 MiB allocation reported by mallinfo(arena+hblkhd)
        170582 MiB available memory on the node where the printing process lives
------------------
     ethr =  2.84E-04,  avg # of iterations =  3.0

     negative rho (up, down):  4.900E+00 4.855E+00


     ----------------------------------------------------------------

     Non-local correlation energy =              9.236785615236913

     ----------------------------------------------------------------


     total cpu time spent up to now is     3993.8 secs

     total energy              =  -11591.35572628 Ry
     estimated scf accuracy    <       2.16700592 Ry

     total magnetization       =     3.76 Bohr mag/cell
     absolute magnetization    =     3.96 Bohr mag/cell

     iteration # 14     ecut=    60.00 Ry     beta= 0.20
     CG style diagonalization

---- Real-time Memory Report at c_bands before calling an iterative solver
             0 MiB given to the printing process from OS
             0 MiB allocation reported by mallinfo(arena+hblkhd)
        170585 MiB available memory on the node where the printing process lives
------------------
     ethr =  2.46E-04,  avg # of iterations =  3.0

     negative rho (up, down):  4.892E+00 4.850E+00


     ----------------------------------------------------------------

     Non-local correlation energy =              9.235794043955860

     ----------------------------------------------------------------


     total cpu time spent up to now is     4170.0 secs

     total energy              =  -11591.38156458 Ry
     estimated scf accuracy    <       0.78779645 Ry

     total magnetization       =     3.87 Bohr mag/cell
     absolute magnetization    =     4.07 Bohr mag/cell

     iteration # 15     ecut=    60.00 Ry     beta= 0.20
     CG style diagonalization

---- Real-time Memory Report at c_bands before calling an iterative solver
             0 MiB given to the printing process from OS
             0 MiB allocation reported by mallinfo(arena+hblkhd)
        170577 MiB available memory on the node where the printing process lives
------------------
     ethr =  8.94E-05,  avg # of iterations =  3.0

     negative rho (up, down):  4.891E+00 4.850E+00


     ----------------------------------------------------------------

     Non-local correlation energy =              9.236605678078320

     ----------------------------------------------------------------


     total cpu time spent up to now is     4347.6 secs

     total energy              =  -11591.38640178 Ry
     estimated scf accuracy    <       0.70464714 Ry

     total magnetization       =     3.76 Bohr mag/cell
     absolute magnetization    =     3.96 Bohr mag/cell

     iteration # 16     ecut=    60.00 Ry     beta= 0.20
     CG style diagonalization

---- Real-time Memory Report at c_bands before calling an iterative solver
             0 MiB given to the printing process from OS
             0 MiB allocation reported by mallinfo(arena+hblkhd)
        170567 MiB available memory on the node where the printing process lives
------------------
     ethr =  8.00E-05,  avg # of iterations =  3.0

     negative rho (up, down):  4.887E+00 4.848E+00


     ----------------------------------------------------------------

     Non-local correlation energy =              9.236901343568256

     ----------------------------------------------------------------


     total cpu time spent up to now is     4523.7 secs

     total energy              =  -11591.39069385 Ry
     estimated scf accuracy    <       0.36739946 Ry

     total magnetization       =     3.76 Bohr mag/cell
     absolute magnetization    =     3.96 Bohr mag/cell

     iteration # 17     ecut=    60.00 Ry     beta= 0.20
     CG style diagonalization

---- Real-time Memory Report at c_bands before calling an iterative solver
             0 MiB given to the printing process from OS
             0 MiB allocation reported by mallinfo(arena+hblkhd)
        170583 MiB available memory on the node where the printing process lives
------------------
     c_bands:  2 eigenvalues not converged
     ethr =  4.17E-05,  avg # of iterations =  3.1

     negative rho (up, down):  4.882E+00 4.845E+00


     ----------------------------------------------------------------

     Non-local correlation energy =              9.236835541216585

     ----------------------------------------------------------------


     total cpu time spent up to now is     4707.6 secs

     total energy              =  -11591.39092614 Ry
     estimated scf accuracy    <       0.24529563 Ry

     total magnetization       =     3.77 Bohr mag/cell
     absolute magnetization    =     3.97 Bohr mag/cell

     iteration # 18     ecut=    60.00 Ry     beta= 0.20
     CG style diagonalization

---- Real-time Memory Report at c_bands before calling an iterative solver
             0 MiB given to the printing process from OS
             0 MiB allocation reported by mallinfo(arena+hblkhd)
        170576 MiB available memory on the node where the printing process lives
------------------
     ethr =  2.78E-05,  avg # of iterations =  3.0

     negative rho (up, down):  4.879E+00 4.844E+00


     ----------------------------------------------------------------

     Non-local correlation energy =              9.236694313177505

     ----------------------------------------------------------------


     total cpu time spent up to now is     4885.4 secs

     total energy              =  -11591.38513289 Ry
     estimated scf accuracy    <       0.42411613 Ry

     total magnetization       =     3.75 Bohr mag/cell
     absolute magnetization    =     3.96 Bohr mag/cell

     iteration # 19     ecut=    60.00 Ry     beta= 0.20
     CG style diagonalization

---- Real-time Memory Report at c_bands before calling an iterative solver
             0 MiB given to the printing process from OS
             0 MiB allocation reported by mallinfo(arena+hblkhd)
        170582 MiB available memory on the node where the printing process lives
------------------
     ethr =  2.78E-05,  avg # of iterations =  3.0

     negative rho (up, down):  4.875E+00 4.842E+00


     ----------------------------------------------------------------

     Non-local correlation energy =              9.236352021829289

     ----------------------------------------------------------------


     total cpu time spent up to now is     5061.4 secs

     total energy              =  -11591.38588252 Ry
     estimated scf accuracy    <       0.48940018 Ry

     total magnetization       =     3.76 Bohr mag/cell
     absolute magnetization    =     3.96 Bohr mag/cell

     iteration # 20     ecut=    60.00 Ry     beta= 0.20
     CG style diagonalization

---- Real-time Memory Report at c_bands before calling an iterative solver
             0 MiB given to the printing process from OS
             0 MiB allocation reported by mallinfo(arena+hblkhd)
        170578 MiB available memory on the node where the printing process lives
------------------
     ethr =  2.78E-05,  avg # of iterations =  3.0

     negative rho (up, down):  4.875E+00 4.842E+00


     ----------------------------------------------------------------

     Non-local correlation energy =              9.236348878138816

     ----------------------------------------------------------------


     total cpu time spent up to now is     5237.7 secs

     total energy              =  -11591.38634939 Ry
     estimated scf accuracy    <       0.29442491 Ry

     total magnetization       =     3.72 Bohr mag/cell
     absolute magnetization    =     3.93 Bohr mag/cell

     iteration # 21     ecut=    60.00 Ry     beta= 0.20
     CG style diagonalization

---- Real-time Memory Report at c_bands before calling an iterative solver
             0 MiB given to the printing process from OS
             0 MiB allocation reported by mallinfo(arena+hblkhd)
        170572 MiB available memory on the node where the printing process lives
------------------
     ethr =  2.78E-05,  avg # of iterations =  3.0

     negative rho (up, down):  4.873E+00 4.841E+00


     ----------------------------------------------------------------

     Non-local correlation energy =              9.236030467150888

     ----------------------------------------------------------------


     total cpu time spent up to now is     5414.0 secs

     total energy              =  -11591.37588823 Ry
     estimated scf accuracy    <       0.87789067 Ry

     total magnetization       =     3.70 Bohr mag/cell
     absolute magnetization    =     3.91 Bohr mag/cell

     iteration # 22     ecut=    60.00 Ry     beta= 0.20
     CG style diagonalization

---- Real-time Memory Report at c_bands before calling an iterative solver
             0 MiB given to the printing process from OS
             0 MiB allocation reported by mallinfo(arena+hblkhd)
        170566 MiB available memory on the node where the printing process lives
------------------
     ethr =  2.78E-05,  avg # of iterations =  3.0

     negative rho (up, down):  4.871E+00 4.840E+00


     ----------------------------------------------------------------

     Non-local correlation energy =              9.235648395655343

     ----------------------------------------------------------------


     total cpu time spent up to now is     5589.9 secs

     total energy              =  -11591.38259025 Ry
     estimated scf accuracy    <       0.65435701 Ry

     total magnetization       =     3.67 Bohr mag/cell
     absolute magnetization    =     3.88 Bohr mag/cell

     iteration # 23     ecut=    60.00 Ry     beta= 0.20
     CG style diagonalization

---- Real-time Memory Report at c_bands before calling an iterative solver
             0 MiB given to the printing process from OS
             0 MiB allocation reported by mallinfo(arena+hblkhd)
        170574 MiB available memory on the node where the printing process lives
------------------
     ethr =  2.78E-05,  avg # of iterations =  3.0

     negative rho (up, down):  4.873E+00 4.841E+00


     ----------------------------------------------------------------

     Non-local correlation energy =              9.235917683031911

     ----------------------------------------------------------------


     total cpu time spent up to now is     5766.2 secs

     total energy              =  -11591.38876348 Ry
     estimated scf accuracy    <       0.21805478 Ry

     total magnetization       =     3.75 Bohr mag/cell
     absolute magnetization    =     3.96 Bohr mag/cell

     iteration # 24     ecut=    60.00 Ry     beta= 0.20
     CG style diagonalization

---- Real-time Memory Report at c_bands before calling an iterative solver
             0 MiB given to the printing process from OS
             0 MiB allocation reported by mallinfo(arena+hblkhd)
        170573 MiB available memory on the node where the printing process lives
------------------
     ethr =  2.48E-05,  avg # of iterations =  3.0

     negative rho (up, down):  4.872E+00 4.840E+00


     ----------------------------------------------------------------

     Non-local correlation energy =              9.235731496098488

     ----------------------------------------------------------------


     total cpu time spent up to now is     5942.2 secs

     total energy              =  -11591.39065532 Ry
     estimated scf accuracy    <       0.22531904 Ry

     total magnetization       =     3.74 Bohr mag/cell
     absolute magnetization    =     3.95 Bohr mag/cell

     iteration # 25     ecut=    60.00 Ry     beta= 0.20
     CG style diagonalization

---- Real-time Memory Report at c_bands before calling an iterative solver
             0 MiB given to the printing process from OS
             0 MiB allocation reported by mallinfo(arena+hblkhd)
        170567 MiB available memory on the node where the printing process lives
------------------
     ethr =  2.48E-05,  avg # of iterations =  3.0

     negative rho (up, down):  4.871E+00 4.840E+00


     ----------------------------------------------------------------

     Non-local correlation energy =              9.235552841379500

     ----------------------------------------------------------------


     total cpu time spent up to now is     6118.1 secs

     total energy              =  -11591.39317354 Ry
     estimated scf accuracy    <       0.13274963 Ry

     total magnetization       =     3.73 Bohr mag/cell
     absolute magnetization    =     3.94 Bohr mag/cell

     iteration # 26     ecut=    60.00 Ry     beta= 0.20
     CG style diagonalization

---- Real-time Memory Report at c_bands before calling an iterative solver
             0 MiB given to the printing process from OS
             0 MiB allocation reported by mallinfo(arena+hblkhd)
        170567 MiB available memory on the node where the printing process lives
------------------
     ethr =  1.51E-05,  avg # of iterations =  3.0

     negative rho (up, down):  4.871E+00 4.840E+00


     ----------------------------------------------------------------

     Non-local correlation energy =              9.235477540467450

     ----------------------------------------------------------------


     total cpu time spent up to now is     6294.3 secs

     total energy              =  -11591.39424913 Ry
     estimated scf accuracy    <       0.06102160 Ry

     total magnetization       =     3.71 Bohr mag/cell
     absolute magnetization    =     3.92 Bohr mag/cell

     iteration # 27     ecut=    60.00 Ry     beta= 0.20
     CG style diagonalization

---- Real-time Memory Report at c_bands before calling an iterative solver
             0 MiB given to the printing process from OS
             0 MiB allocation reported by mallinfo(arena+hblkhd)
        170562 MiB available memory on the node where the printing process lives
------------------
     c_bands:  1 eigenvalues not converged
     ethr =  6.93E-06,  avg # of iterations =  3.1

     negative rho (up, down):  4.870E+00 4.839E+00


     ----------------------------------------------------------------

     Non-local correlation energy =              9.235223130647137

     ----------------------------------------------------------------


     total cpu time spent up to now is     6476.5 secs

     total energy              =  -11591.39519961 Ry
     estimated scf accuracy    <       0.02649421 Ry

     total magnetization       =     3.72 Bohr mag/cell
     absolute magnetization    =     3.93 Bohr mag/cell

     iteration # 28     ecut=    60.00 Ry     beta= 0.20
     CG style diagonalization

---- Real-time Memory Report at c_bands before calling an iterative solver
             0 MiB given to the printing process from OS
             0 MiB allocation reported by mallinfo(arena+hblkhd)
        170553 MiB available memory on the node where the printing process lives
------------------
     c_bands:  1 eigenvalues not converged
     ethr =  3.01E-06,  avg # of iterations =  3.1

     negative rho (up, down):  4.870E+00 4.839E+00


     ----------------------------------------------------------------

     Non-local correlation energy =              9.235111559010821

     ----------------------------------------------------------------


     total cpu time spent up to now is     6660.8 secs

     total energy              =  -11591.39536472 Ry
     estimated scf accuracy    <       0.01510789 Ry

     total magnetization       =     3.73 Bohr mag/cell
     absolute magnetization    =     3.94 Bohr mag/cell

     iteration # 29     ecut=    60.00 Ry     beta= 0.20
     CG style diagonalization

---- Real-time Memory Report at c_bands before calling an iterative solver
             0 MiB given to the printing process from OS
             0 MiB allocation reported by mallinfo(arena+hblkhd)
        170549 MiB available memory on the node where the printing process lives
------------------
     ethr =  1.71E-06,  avg # of iterations =  3.0

     negative rho (up, down):  4.869E+00 4.839E+00


     ----------------------------------------------------------------

     Non-local correlation energy =              9.234835758333533

     ----------------------------------------------------------------


     total cpu time spent up to now is     6840.9 secs

     total energy              =  -11591.39529464 Ry
     estimated scf accuracy    <       0.01746659 Ry

     total magnetization       =     3.73 Bohr mag/cell
     absolute magnetization    =     3.94 Bohr mag/cell

     iteration # 30     ecut=    60.00 Ry     beta= 0.20
     CG style diagonalization

---- Real-time Memory Report at c_bands before calling an iterative solver
             0 MiB given to the printing process from OS
             0 MiB allocation reported by mallinfo(arena+hblkhd)
        170553 MiB available memory on the node where the printing process lives
------------------
     ethr =  1.71E-06,  avg # of iterations =  3.0

     negative rho (up, down):  4.868E+00 4.839E+00


     ----------------------------------------------------------------

     Non-local correlation energy =              9.234428076465591

     ----------------------------------------------------------------


     total cpu time spent up to now is     7017.3 secs

     total energy              =  -11591.39497194 Ry
     estimated scf accuracy    <       0.00887108 Ry

     total magnetization       =     3.73 Bohr mag/cell
     absolute magnetization    =     3.94 Bohr mag/cell

     iteration # 31     ecut=    60.00 Ry     beta= 0.20
     CG style diagonalization

---- Real-time Memory Report at c_bands before calling an iterative solver
             0 MiB given to the printing process from OS
             0 MiB allocation reported by mallinfo(arena+hblkhd)
        170555 MiB available memory on the node where the printing process lives
------------------
     ethr =  1.01E-06,  avg # of iterations =  3.1

     negative rho (up, down):  4.868E+00 4.839E+00


     ----------------------------------------------------------------

     Non-local correlation energy =              9.234286191659042

     ----------------------------------------------------------------


     total cpu time spent up to now is     7201.9 secs

     total energy              =  -11591.39422672 Ry
     estimated scf accuracy    <       0.03610961 Ry

     total magnetization       =     3.73 Bohr mag/cell
     absolute magnetization    =     3.94 Bohr mag/cell

     iteration # 32     ecut=    60.00 Ry     beta= 0.20
     CG style diagonalization

---- Real-time Memory Report at c_bands before calling an iterative solver
             0 MiB given to the printing process from OS
             0 MiB allocation reported by mallinfo(arena+hblkhd)
        170554 MiB available memory on the node where the printing process lives
------------------
     ethr =  1.01E-06,  avg # of iterations =  3.0

     negative rho (up, down):  4.867E+00 4.838E+00


     ----------------------------------------------------------------

     Non-local correlation energy =              9.234116968776641

     ----------------------------------------------------------------


     total cpu time spent up to now is     7378.4 secs

     total energy              =  -11591.39426954 Ry
     estimated scf accuracy    <       0.04012089 Ry

     total magnetization       =     3.73 Bohr mag/cell
     absolute magnetization    =     3.95 Bohr mag/cell

     iteration # 33     ecut=    60.00 Ry     beta= 0.20
     CG style diagonalization

---- Real-time Memory Report at c_bands before calling an iterative solver
             0 MiB given to the printing process from OS
             0 MiB allocation reported by mallinfo(arena+hblkhd)
        170554 MiB available memory on the node where the printing process lives
------------------
     ethr =  1.01E-06,  avg # of iterations =  3.0

     negative rho (up, down):  4.867E+00 4.838E+00


     ----------------------------------------------------------------

     Non-local correlation energy =              9.233943884492930

     ----------------------------------------------------------------


     total cpu time spent up to now is     7555.5 secs

     total energy              =  -11591.39440918 Ry
     estimated scf accuracy    <       0.01321278 Ry

     total magnetization       =     3.72 Bohr mag/cell
     absolute magnetization    =     3.93 Bohr mag/cell

     iteration # 34     ecut=    60.00 Ry     beta= 0.20
     CG style diagonalization

---- Real-time Memory Report at c_bands before calling an iterative solver
             0 MiB given to the printing process from OS
             0 MiB allocation reported by mallinfo(arena+hblkhd)
        170554 MiB available memory on the node where the printing process lives
------------------
     ethr =  1.01E-06,  avg # of iterations =  3.1

     negative rho (up, down):  4.867E+00 4.838E+00


     ----------------------------------------------------------------

     Non-local correlation energy =              9.233874273562517

     ----------------------------------------------------------------


     total cpu time spent up to now is     7736.5 secs

     total energy              =  -11591.39394364 Ry
     estimated scf accuracy    <       0.03164684 Ry

     total magnetization       =     3.72 Bohr mag/cell
     absolute magnetization    =     3.94 Bohr mag/cell

     iteration # 35     ecut=    60.00 Ry     beta= 0.20
     CG style diagonalization

---- Real-time Memory Report at c_bands before calling an iterative solver
             0 MiB given to the printing process from OS
             0 MiB allocation reported by mallinfo(arena+hblkhd)
        170556 MiB available memory on the node where the printing process lives
------------------
     ethr =  1.01E-06,  avg # of iterations =  3.0

     negative rho (up, down):  4.866E+00 4.838E+00


     ----------------------------------------------------------------

     Non-local correlation energy =              9.233495822468825

     ----------------------------------------------------------------


     total cpu time spent up to now is     7913.1 secs

     total energy              =  -11591.39375243 Ry
     estimated scf accuracy    <       0.03833895 Ry

     total magnetization       =     3.73 Bohr mag/cell
     absolute magnetization    =     3.95 Bohr mag/cell

     iteration # 36     ecut=    60.00 Ry     beta= 0.20
     CG style diagonalization

---- Real-time Memory Report at c_bands before calling an iterative solver
             0 MiB given to the printing process from OS
             0 MiB allocation reported by mallinfo(arena+hblkhd)
        170560 MiB available memory on the node where the printing process lives
------------------
     ethr =  1.01E-06,  avg # of iterations =  3.2

     negative rho (up, down):  4.866E+00 4.838E+00


     ----------------------------------------------------------------

     Non-local correlation energy =              9.233562588458188

     ----------------------------------------------------------------


     total cpu time spent up to now is     8105.4 secs

     total energy              =  -11591.39417035 Ry
     estimated scf accuracy    <       0.01086618 Ry

     total magnetization       =     3.74 Bohr mag/cell
     absolute magnetization    =     3.96 Bohr mag/cell

     iteration # 37     ecut=    60.00 Ry     beta= 0.20
     CG style diagonalization

---- Real-time Memory Report at c_bands before calling an iterative solver
             0 MiB given to the printing process from OS
             0 MiB allocation reported by mallinfo(arena+hblkhd)
        170552 MiB available memory on the node where the printing process lives
------------------
     ethr =  1.01E-06,  avg # of iterations =  3.0

     negative rho (up, down):  4.866E+00 4.838E+00


     ----------------------------------------------------------------

     Non-local correlation energy =              9.233526754943973

     ----------------------------------------------------------------


     total cpu time spent up to now is     8281.4 secs

     total energy              =  -11591.39415082 Ry
     estimated scf accuracy    <       0.01400878 Ry

     total magnetization       =     3.74 Bohr mag/cell
     absolute magnetization    =     3.95 Bohr mag/cell

     iteration # 38     ecut=    60.00 Ry     beta= 0.20
     CG style diagonalization

---- Real-time Memory Report at c_bands before calling an iterative solver
             0 MiB given to the printing process from OS
             0 MiB allocation reported by mallinfo(arena+hblkhd)
        170562 MiB available memory on the node where the printing process lives
------------------
     ethr =  1.01E-06,  avg # of iterations =  3.0

     negative rho (up, down):  4.866E+00 4.838E+00


     ----------------------------------------------------------------

     Non-local correlation energy =              9.233574282808174

     ----------------------------------------------------------------


     total cpu time spent up to now is     8457.4 secs

     total energy              =  -11591.39440220 Ry
     estimated scf accuracy    <       0.00597579 Ry

     total magnetization       =     3.73 Bohr mag/cell
     absolute magnetization    =     3.95 Bohr mag/cell

     iteration # 39     ecut=    60.00 Ry     beta= 0.20
     CG style diagonalization

---- Real-time Memory Report at c_bands before calling an iterative solver
             0 MiB given to the printing process from OS
             0 MiB allocation reported by mallinfo(arena+hblkhd)
        170551 MiB available memory on the node where the printing process lives
------------------
     ethr =  6.78E-07,  avg # of iterations =  3.0

     negative rho (up, down):  4.866E+00 4.838E+00


     ----------------------------------------------------------------

     Non-local correlation energy =              9.233464726006583

     ----------------------------------------------------------------


     total cpu time spent up to now is     8633.5 secs

     total energy              =  -11591.39437923 Ry
     estimated scf accuracy    <       0.00886238 Ry

     total magnetization       =     3.74 Bohr mag/cell
     absolute magnetization    =     3.95 Bohr mag/cell

     iteration # 40     ecut=    60.00 Ry     beta= 0.20
     CG style diagonalization

---- Real-time Memory Report at c_bands before calling an iterative solver
             0 MiB given to the printing process from OS
             0 MiB allocation reported by mallinfo(arena+hblkhd)
        170552 MiB available memory on the node where the printing process lives
------------------
     ethr =  6.78E-07,  avg # of iterations =  3.0

     negative rho (up, down):  4.865E+00 4.838E+00


     ----------------------------------------------------------------

     Non-local correlation energy =              9.233295729971108

     ----------------------------------------------------------------


     total cpu time spent up to now is     8809.5 secs

     total energy              =  -11591.39438086 Ry
     estimated scf accuracy    <       0.00120031 Ry

     total magnetization       =     3.74 Bohr mag/cell
     absolute magnetization    =     3.96 Bohr mag/cell

     iteration # 41     ecut=    60.00 Ry     beta= 0.20
     CG style diagonalization

---- Real-time Memory Report at c_bands before calling an iterative solver
             0 MiB given to the printing process from OS
             0 MiB allocation reported by mallinfo(arena+hblkhd)
        170538 MiB available memory on the node where the printing process lives
------------------
     ethr =  1.36E-07,  avg # of iterations =  3.0

     negative rho (up, down):  4.865E+00 4.838E+00


     ----------------------------------------------------------------

     Non-local correlation energy =              9.233276739885838

     ----------------------------------------------------------------


     total cpu time spent up to now is     8987.0 secs

     total energy              =  -11591.39434891 Ry
     estimated scf accuracy    <       0.00179129 Ry

     total magnetization       =     3.74 Bohr mag/cell
     absolute magnetization    =     3.96 Bohr mag/cell

     iteration # 42     ecut=    60.00 Ry     beta= 0.20
     CG style diagonalization

---- Real-time Memory Report at c_bands before calling an iterative solver
             0 MiB given to the printing process from OS
             0 MiB allocation reported by mallinfo(arena+hblkhd)
        170540 MiB available memory on the node where the printing process lives
------------------
     ethr =  1.36E-07,  avg # of iterations =  3.0

     negative rho (up, down):  4.865E+00 4.838E+00


     ----------------------------------------------------------------

     Non-local correlation energy =              9.233238189432830

     ----------------------------------------------------------------


     total cpu time spent up to now is     9163.1 secs

     total energy              =  -11591.39432522 Ry
     estimated scf accuracy    <       0.00318450 Ry

     total magnetization       =     3.74 Bohr mag/cell
     absolute magnetization    =     3.96 Bohr mag/cell

     iteration # 43     ecut=    60.00 Ry     beta= 0.20
     CG style diagonalization

---- Real-time Memory Report at c_bands before calling an iterative solver
             0 MiB given to the printing process from OS
             0 MiB allocation reported by mallinfo(arena+hblkhd)
        170546 MiB available memory on the node where the printing process lives
------------------
     ethr =  1.36E-07,  avg # of iterations =  3.0

     negative rho (up, down):  4.865E+00 4.838E+00


     ----------------------------------------------------------------

     Non-local correlation energy =              9.233128358807434

     ----------------------------------------------------------------


     total cpu time spent up to now is     9339.2 secs

     total energy              =  -11591.39430613 Ry
     estimated scf accuracy    <       0.00088690 Ry

     total magnetization       =     3.75 Bohr mag/cell
     absolute magnetization    =     3.97 Bohr mag/cell

     iteration # 44     ecut=    60.00 Ry     beta= 0.20
     CG style diagonalization

---- Real-time Memory Report at c_bands before calling an iterative solver
             0 MiB given to the printing process from OS
             0 MiB allocation reported by mallinfo(arena+hblkhd)
        170538 MiB available memory on the node where the printing process lives
------------------
     ethr =  1.01E-07,  avg # of iterations =  3.0

     negative rho (up, down):  4.865E+00 4.838E+00


     ----------------------------------------------------------------

     Non-local correlation energy =              9.233057326883845

     ----------------------------------------------------------------


     total cpu time spent up to now is     9516.2 secs

     total energy              =  -11591.39426737 Ry
     estimated scf accuracy    <       0.00132283 Ry

     total magnetization       =     3.75 Bohr mag/cell
     absolute magnetization    =     3.97 Bohr mag/cell

     iteration # 45     ecut=    60.00 Ry     beta= 0.20
     CG style diagonalization

---- Real-time Memory Report at c_bands before calling an iterative solver
             0 MiB given to the printing process from OS
             0 MiB allocation reported by mallinfo(arena+hblkhd)
        170533 MiB available memory on the node where the printing process lives
------------------
     ethr =  1.01E-07,  avg # of iterations =  3.0

     negative rho (up, down):  4.865E+00 4.838E+00


     ----------------------------------------------------------------

     Non-local correlation energy =              9.232936532735351

     ----------------------------------------------------------------


     total cpu time spent up to now is     9695.8 secs

     total energy              =  -11591.39424429 Ry
     estimated scf accuracy    <       0.00251474 Ry

     total magnetization       =     3.75 Bohr mag/cell
     absolute magnetization    =     3.97 Bohr mag/cell

     iteration # 46     ecut=    60.00 Ry     beta= 0.20
     CG style diagonalization

---- Real-time Memory Report at c_bands before calling an iterative solver
             0 MiB given to the printing process from OS
             0 MiB allocation reported by mallinfo(arena+hblkhd)
        170543 MiB available memory on the node where the printing process lives
------------------
     ethr =  1.01E-07,  avg # of iterations =  3.0

     negative rho (up, down):  4.865E+00 4.838E+00


     ----------------------------------------------------------------

     Non-local correlation energy =              9.232835458730964

     ----------------------------------------------------------------


     total cpu time spent up to now is     9873.1 secs

     total energy              =  -11591.39427412 Ry
     estimated scf accuracy    <       0.00088890 Ry

     total magnetization       =     3.76 Bohr mag/cell
     absolute magnetization    =     3.98 Bohr mag/cell

     iteration # 47     ecut=    60.00 Ry     beta= 0.20
     CG style diagonalization

---- Real-time Memory Report at c_bands before calling an iterative solver
             0 MiB given to the printing process from OS
             0 MiB allocation reported by mallinfo(arena+hblkhd)
        170548 MiB available memory on the node where the printing process lives
------------------
     ethr =  1.01E-07,  avg # of iterations =  3.0

     negative rho (up, down):  4.865E+00 4.838E+00


     ----------------------------------------------------------------

     Non-local correlation energy =              9.232832143695383

     ----------------------------------------------------------------


     total cpu time spent up to now is    10049.0 secs

     total energy              =  -11591.39425687 Ry
     estimated scf accuracy    <       0.00129976 Ry

     total magnetization       =     3.77 Bohr mag/cell
     absolute magnetization    =     3.99 Bohr mag/cell

     iteration # 48     ecut=    60.00 Ry     beta= 0.20
     CG style diagonalization

---- Real-time Memory Report at c_bands before calling an iterative solver
             0 MiB given to the printing process from OS
             0 MiB allocation reported by mallinfo(arena+hblkhd)
        170553 MiB available memory on the node where the printing process lives
------------------
     ethr =  1.01E-07,  avg # of iterations =  3.0

     negative rho (up, down):  4.865E+00 4.838E+00


     ----------------------------------------------------------------

     Non-local correlation energy =              9.232815507438087

     ----------------------------------------------------------------


     total cpu time spent up to now is    10225.4 secs

     total energy              =  -11591.39426025 Ry
     estimated scf accuracy    <       0.00121874 Ry

     total magnetization       =     3.77 Bohr mag/cell
     absolute magnetization    =     3.99 Bohr mag/cell

     iteration # 49     ecut=    60.00 Ry     beta= 0.20
     CG style diagonalization

---- Real-time Memory Report at c_bands before calling an iterative solver
             0 MiB given to the printing process from OS
             0 MiB allocation reported by mallinfo(arena+hblkhd)
        170550 MiB available memory on the node where the printing process lives
------------------
     ethr =  1.01E-07,  avg # of iterations =  3.0

     negative rho (up, down):  4.865E+00 4.838E+00


     ----------------------------------------------------------------

     Non-local correlation energy =              9.232822001538960

     ----------------------------------------------------------------


     total cpu time spent up to now is    10401.2 secs

     total energy              =  -11591.39422242 Ry
     estimated scf accuracy    <       0.00466359 Ry

     total magnetization       =     3.77 Bohr mag/cell
     absolute magnetization    =     3.99 Bohr mag/cell

     iteration # 50     ecut=    60.00 Ry     beta= 0.20
     CG style diagonalization

---- Real-time Memory Report at c_bands before calling an iterative solver
             0 MiB given to the printing process from OS
             0 MiB allocation reported by mallinfo(arena+hblkhd)
        170562 MiB available memory on the node where the printing process lives
------------------
     ethr =  1.01E-07,  avg # of iterations =  3.0

     negative rho (up, down):  4.864E+00 4.838E+00


     ----------------------------------------------------------------

     Non-local correlation energy =              9.232745567638080

     ----------------------------------------------------------------


     total cpu time spent up to now is    10577.0 secs

     total energy              =  -11591.39430755 Ry
     estimated scf accuracy    <       0.00078683 Ry

     total magnetization       =     3.77 Bohr mag/cell
     absolute magnetization    =     3.99 Bohr mag/cell

     iteration # 51     ecut=    60.00 Ry     beta= 0.20
     CG style diagonalization

---- Real-time Memory Report at c_bands before calling an iterative solver
             0 MiB given to the printing process from OS
             0 MiB allocation reported by mallinfo(arena+hblkhd)
        170556 MiB available memory on the node where the printing process lives
------------------
     ethr =  8.93E-08,  avg # of iterations =  3.0

     negative rho (up, down):  4.864E+00 4.838E+00


     ----------------------------------------------------------------

     Non-local correlation energy =              9.232754099022211

     ----------------------------------------------------------------


     total cpu time spent up to now is    10752.8 secs

     total energy              =  -11591.39431081 Ry
     estimated scf accuracy    <       0.00051871 Ry

     total magnetization       =     3.78 Bohr mag/cell
     absolute magnetization    =     4.00 Bohr mag/cell

     iteration # 52     ecut=    60.00 Ry     beta= 0.20
     CG style diagonalization

---- Real-time Memory Report at c_bands before calling an iterative solver
             0 MiB given to the printing process from OS
             0 MiB allocation reported by mallinfo(arena+hblkhd)
        170550 MiB available memory on the node where the printing process lives
------------------
     ethr =  5.89E-08,  avg # of iterations =  3.0

     negative rho (up, down):  4.864E+00 4.838E+00


     ----------------------------------------------------------------

     Non-local correlation energy =              9.232754768177449

     ----------------------------------------------------------------


     total cpu time spent up to now is    10928.6 secs

     total energy              =  -11591.39430831 Ry
     estimated scf accuracy    <       0.00109825 Ry

     total magnetization       =     3.78 Bohr mag/cell
     absolute magnetization    =     4.00 Bohr mag/cell

     iteration # 53     ecut=    60.00 Ry     beta= 0.20
     CG style diagonalization

---- Real-time Memory Report at c_bands before calling an iterative solver
             0 MiB given to the printing process from OS
             0 MiB allocation reported by mallinfo(arena+hblkhd)
        170549 MiB available memory on the node where the printing process lives
------------------
     ethr =  5.89E-08,  avg # of iterations =  3.0

     negative rho (up, down):  4.864E+00 4.838E+00


     ----------------------------------------------------------------

     Non-local correlation energy =              9.232716691793115

     ----------------------------------------------------------------


     total cpu time spent up to now is    11104.4 secs

     total energy              =  -11591.39433333 Ry
     estimated scf accuracy    <       0.00021863 Ry

     total magnetization       =     3.78 Bohr mag/cell
     absolute magnetization    =     4.00 Bohr mag/cell

     iteration # 54     ecut=    60.00 Ry     beta= 0.20
     CG style diagonalization

---- Real-time Memory Report at c_bands before calling an iterative solver
             0 MiB given to the printing process from OS
             0 MiB allocation reported by mallinfo(arena+hblkhd)
        170545 MiB available memory on the node where the printing process lives
------------------
     ethr =  2.48E-08,  avg # of iterations =  3.0

     negative rho (up, down):  4.864E+00 4.838E+00


     ----------------------------------------------------------------

     Non-local correlation energy =              9.232697930857167

     ----------------------------------------------------------------


     total cpu time spent up to now is    11280.2 secs

     total energy              =  -11591.39434135 Ry
     estimated scf accuracy    <       0.00012734 Ry

     total magnetization       =     3.78 Bohr mag/cell
     absolute magnetization    =     4.01 Bohr mag/cell

     iteration # 55     ecut=    60.00 Ry     beta= 0.20
     CG style diagonalization

---- Real-time Memory Report at c_bands before calling an iterative solver
             0 MiB given to the printing process from OS
             0 MiB allocation reported by mallinfo(arena+hblkhd)
        170539 MiB available memory on the node where the printing process lives
------------------
     ethr =  1.45E-08,  avg # of iterations =  3.0

     negative rho (up, down):  4.864E+00 4.838E+00


     ----------------------------------------------------------------

     Non-local correlation energy =              9.232673053867334

     ----------------------------------------------------------------


     total cpu time spent up to now is    11455.9 secs

     total energy              =  -11591.39435110 Ry
     estimated scf accuracy    <       0.00020730 Ry

     total magnetization       =     3.79 Bohr mag/cell
     absolute magnetization    =     4.01 Bohr mag/cell

     iteration # 56     ecut=    60.00 Ry     beta= 0.20
     CG style diagonalization

---- Real-time Memory Report at c_bands before calling an iterative solver
             0 MiB given to the printing process from OS
             0 MiB allocation reported by mallinfo(arena+hblkhd)
        170544 MiB available memory on the node where the printing process lives
------------------
     ethr =  1.45E-08,  avg # of iterations =  3.0

     negative rho (up, down):  4.864E+00 4.838E+00


     ----------------------------------------------------------------

     Non-local correlation energy =              9.232631030613934

     ----------------------------------------------------------------


     total cpu time spent up to now is    11632.6 secs

     total energy              =  -11591.39436980 Ry
     estimated scf accuracy    <       0.00006294 Ry

     total magnetization       =     3.79 Bohr mag/cell
     absolute magnetization    =     4.01 Bohr mag/cell

     iteration # 57     ecut=    60.00 Ry     beta= 0.20
     CG style diagonalization

---- Real-time Memory Report at c_bands before calling an iterative solver
             0 MiB given to the printing process from OS
             0 MiB allocation reported by mallinfo(arena+hblkhd)
        170544 MiB available memory on the node where the printing process lives
------------------
     ethr =  7.14E-09,  avg # of iterations =  3.0

     negative rho (up, down):  4.864E+00 4.838E+00


     ----------------------------------------------------------------

     Non-local correlation energy =              9.232598970138307

     ----------------------------------------------------------------


     total cpu time spent up to now is    11808.4 secs

     total energy              =  -11591.39438232 Ry
     estimated scf accuracy    <       0.00006482 Ry

     total magnetization       =     3.80 Bohr mag/cell
     absolute magnetization    =     4.02 Bohr mag/cell

     iteration # 58     ecut=    60.00 Ry     beta= 0.20
     CG style diagonalization

---- Real-time Memory Report at c_bands before calling an iterative solver
             0 MiB given to the printing process from OS
             0 MiB allocation reported by mallinfo(arena+hblkhd)
        170532 MiB available memory on the node where the printing process lives
------------------
     ethr =  7.14E-09,  avg # of iterations =  3.0

     negative rho (up, down):  4.865E+00 4.838E+00


     ----------------------------------------------------------------

     Non-local correlation energy =              9.232552233729107

     ----------------------------------------------------------------


     total cpu time spent up to now is    11984.0 secs

     total energy              =  -11591.39439942 Ry
     estimated scf accuracy    <       0.00013557 Ry

     total magnetization       =     3.81 Bohr mag/cell
     absolute magnetization    =     4.03 Bohr mag/cell

     iteration # 59     ecut=    60.00 Ry     beta= 0.20
     CG style diagonalization

---- Real-time Memory Report at c_bands before calling an iterative solver
             0 MiB given to the printing process from OS
             0 MiB allocation reported by mallinfo(arena+hblkhd)
        170546 MiB available memory on the node where the printing process lives
------------------
     ethr =  7.14E-09,  avg # of iterations =  3.0

     negative rho (up, down):  4.865E+00 4.838E+00


     ----------------------------------------------------------------

     Non-local correlation energy =              9.232558654869251

     ----------------------------------------------------------------


     total cpu time spent up to now is    12161.3 secs

     total energy              =  -11591.39439348 Ry
     estimated scf accuracy    <       0.00034080 Ry

     total magnetization       =     3.82 Bohr mag/cell
     absolute magnetization    =     4.04 Bohr mag/cell

     iteration # 60     ecut=    60.00 Ry     beta= 0.20
     CG style diagonalization

---- Real-time Memory Report at c_bands before calling an iterative solver
             0 MiB given to the printing process from OS
             0 MiB allocation reported by mallinfo(arena+hblkhd)
        170541 MiB available memory on the node where the printing process lives
------------------
     ethr =  7.14E-09,  avg # of iterations =  3.0

     negative rho (up, down):  4.865E+00 4.839E+00


     ----------------------------------------------------------------

     Non-local correlation energy =              9.232403342757951

     ----------------------------------------------------------------

 
     Magnetic moment per site  (integrated on atomic sphere of radius R)
     atom   1 (R=0.039)  charge=  9.0017  magn=  0.0178
     atom   2 (R=0.039)  charge=  9.0250  magn=  0.0267
     atom   3 (R=0.039)  charge=  9.0242  magn=  0.0263
     atom   4 (R=0.039)  charge=  9.0369  magn=  0.0500
     atom   5 (R=0.039)  charge=  9.0269  magn=  0.0343
     atom   6 (R=0.039)  charge=  9.0261  magn=  0.0329
     atom   7 (R=0.039)  charge=  9.0131  magn=  0.0473
     atom   8 (R=0.039)  charge=  9.0258  magn=  0.0349
     atom   9 (R=0.039)  charge=  9.0344  magn=  0.0485
     atom  10 (R=0.039)  charge=  9.0251  magn=  0.0333
     atom  11 (R=0.039)  charge=  9.0119  magn=  0.0464
     atom  12 (R=0.039)  charge=  9.0234  magn=  0.0315
     atom  13 (R=0.039)  charge=  9.0161  magn=  0.0164
     atom  14 (R=0.039)  charge=  9.0242  magn=  0.0322
     atom  15 (R=0.039)  charge=  9.0108  magn=  0.0480
     atom  16 (R=0.039)  charge=  9.0101  magn=  0.0474
     atom  17 (R=0.039)  charge=  9.0343  magn=  0.0519
     atom  18 (R=0.039)  charge=  9.0250  magn=  0.0348
     atom  19 (R=0.039)  charge=  9.0236  magn=  0.0338
     atom  20 (R=0.039)  charge=  9.0335  magn=  0.0506
     atom  21 (R=0.039)  charge=  9.0245  magn=  0.0342
     atom  22 (R=0.039)  charge=  9.0329  magn=  0.0465
     atom  23 (R=0.039)  charge=  9.0113  magn=  0.0465
     atom  24 (R=0.039)  charge=  9.0248  magn=  0.0329
     atom  25 (R=0.039)  charge=  9.0248  magn=  0.0327
     atom  26 (R=0.039)  charge=  9.0165  magn=  0.0171
     atom  27 (R=0.039)  charge=  9.0116  magn=  0.0497
     atom  28 (R=0.039)  charge=  9.0249  magn=  0.0330
     atom  29 (R=0.039)  charge=  9.0121  magn=  0.0476
     atom  30 (R=0.039)  charge=  9.0351  magn=  0.0481
     atom  31 (R=0.039)  charge=  9.0255  magn=  0.0329
     atom  32 (R=0.039)  charge=  9.0158  magn=  0.0169
     atom  33 (R=0.039)  charge=  9.0100  magn=  0.0481
     atom  34 (R=0.039)  charge=  9.0122  magn=  0.0469
     atom  35 (R=0.039)  charge=  9.0238  magn=  0.0326
     atom  36 (R=0.039)  charge=  8.9888  magn=  0.0754
     atom  37 (R=0.039)  charge=  9.0111  magn=  0.0470
     atom  38 (R=0.039)  charge=  9.0121  magn=  0.0478
     atom  39 (R=0.039)  charge=  9.0111  magn=  0.0469
     atom  40 (R=0.039)  charge=  9.0160  magn=  0.0189
     atom  41 (R=0.039)  charge=  9.0264  magn=  0.0323
     atom  42 (R=0.039)  charge=  9.0321  magn=  0.0467
     atom  43 (R=0.039)  charge=  9.0233  magn=  0.0316
     atom  44 (R=0.039)  charge=  9.0145  magn=  0.0184
     atom  45 (R=0.039)  charge=  9.0253  magn=  0.0322
     atom  46 (R=0.039)  charge=  9.0352  magn=  0.0513
     atom  47 (R=0.039)  charge=  9.0259  magn=  0.0322
     atom  48 (R=0.039)  charge=  9.0346  magn=  0.0498
     atom  49 (R=0.039)  charge=  9.0249  magn=  0.0331
     atom  50 (R=0.039)  charge=  9.0345  magn=  0.0487
     atom  51 (R=0.039)  charge=  9.0242  magn=  0.0324
     atom  52 (R=0.039)  charge=  9.0170  magn=  0.0186
     atom  53 (R=0.039)  charge=  9.0261  magn=  0.0320
     atom  54 (R=0.039)  charge=  9.0349  magn=  0.0497
     atom  55 (R=0.039)  charge=  9.0330  magn=  0.0486
     atom  56 (R=0.039)  charge=  0.8121  magn= -0.0007

     total cpu time spent up to now is    12337.1 secs

     End of self-consistent calculation

 ------ SPIN UP ------------


[...]
     atom   12 type  1   force =     0.00790518   -0.00888453    0.02507116
     atom   13 type  1   force =     0.02754788    0.00049578    0.00049571
     atom   14 type  1   force =     0.02428447   -0.00659701   -0.00659698
     atom   15 type  1   force =    -0.00346761   -0.00027886    0.00578772
     atom   16 type  1   force =    -0.00346760    0.00578777   -0.00027889
     atom   17 type  1   force =     0.01336984   -0.00010363   -0.01320235
     atom   18 type  1   force =     0.00889496   -0.00879484   -0.02545395
     atom   19 type  1   force =     0.00844953   -0.02573346    0.00817713
     atom   20 type  1   force =     0.01336946   -0.01320203   -0.00010358
     atom   21 type  1   force =     0.00889497   -0.02545393   -0.00879481
     atom   22 type  1   force =     0.00049445    0.01231239    0.01231246
     atom   23 type  1   force =     0.00031974   -0.00474604   -0.00474608
     atom   24 type  1   force =    -0.00881848    0.02522014    0.00847897
     atom   25 type  1   force =    -0.00881848    0.00847895    0.02522010
     atom   26 type  1   force =     0.00138604    0.03079325    0.00045038
     atom   27 type  1   force =     0.00002838   -0.00455205    0.00424687
     atom   28 type  1   force =    -0.00859345    0.02540123   -0.00814931
     atom   29 type  1   force =     0.00468341   -0.00470952    0.00005361
     atom   30 type  1   force =    -0.00021232    0.01232583   -0.01240799
     atom   31 type  1   force =    -0.00871139    0.00821966   -0.02581292
     atom   32 type  1   force =     0.00138606    0.00045044    0.03079332
     atom   33 type  1   force =     0.00002837    0.00424692   -0.00455208
     atom   34 type  1   force =     0.00468341    0.00005365   -0.00470955
     atom   35 type  1   force =    -0.00859335   -0.00814925    0.02540099
     atom   36 type  1   force =     0.00043299    0.00035661    0.00035660
     atom   37 type  1   force =     0.00024623    0.00462677    0.00462672
     atom   38 type  1   force =     0.00498248   -0.00001422    0.00505553
     atom   39 type  1   force =     0.00498249    0.00505557   -0.00001423
     atom   40 type  1   force =     0.00027166    0.00005801   -0.03020475
     atom   41 type  1   force =    -0.00851836   -0.00859088   -0.02530663
     atom   42 type  1   force =    -0.00021230   -0.01240727    0.01232513
     atom   43 type  1   force =    -0.00871130   -0.02581269    0.00821959
     atom   44 type  1   force =     0.00027164   -0.03020484    0.00005795
     atom   45 type  1   force =    -0.00851836   -0.02530660   -0.00859086
     atom   46 type  1   force =     0.00028095   -0.01220811   -0.01220804
     atom   47 type  1   force =    -0.02521308    0.00860112    0.00860116
     atom   48 type  1   force =    -0.01247095    0.01270570   -0.00007297
     atom   49 type  1   force =    -0.02569954    0.00843354   -0.00845263
     atom   50 type  1   force =    -0.01247054   -0.00007302    0.01270535
     atom   51 type  1   force =    -0.02569932   -0.00845256    0.00843346
     atom   52 type  1   force =    -0.03092136    0.00011317    0.00011311
     atom   53 type  1   force =    -0.02569670   -0.00839936   -0.00839934
     atom   54 type  1   force =    -0.01197171   -0.00015292   -0.01177392
     atom   55 type  1   force =    -0.01197129   -0.01177357   -0.00015289
     atom   56 type  2   force =     0.00000000    0.00000000    0.00000000
     The Hubbard contrib.    to forces
     atom    1 type  1   force =     0.00000000    0.00000000    0.00000000
     atom    2 type  1   force =     0.00000000    0.00000000    0.00000000
     atom    3 type  1   force =     0.00000000    0.00000000    0.00000000
     atom    4 type  1   force =     0.00000000    0.00000000    0.00000000
     atom    5 type  1   force =     0.00000000    0.00000000    0.00000000
     atom    6 type  1   force =     0.00000000    0.00000000    0.00000000
     atom    7 type  1   force =     0.00000000    0.00000000    0.00000000
     atom    8 type  1   force =     0.00000000    0.00000000    0.00000000
     atom    9 type  1   force =     0.00000000    0.00000000    0.00000000
     atom   10 type  1   force =     0.00000000    0.00000000    0.00000000
     atom   11 type  1   force =     0.00000000    0.00000000    0.00000000
     atom   12 type  1   force =     0.00000000    0.00000000    0.00000000
     atom   13 type  1   force =     0.00000000    0.00000000    0.00000000
     atom   14 type  1   force =     0.00000000    0.00000000    0.00000000
     atom   15 type  1   force =     0.00000000    0.00000000    0.00000000
     atom   16 type  1   force =     0.00000000    0.00000000    0.00000000
     atom   17 type  1   force =     0.00000000    0.00000000    0.00000000
     atom   18 type  1   force =     0.00000000    0.00000000    0.00000000
     atom   19 type  1   force =     0.00000000    0.00000000    0.00000000
     atom   20 type  1   force =     0.00000000    0.00000000    0.00000000
     atom   21 type  1   force =     0.00000000    0.00000000    0.00000000
     atom   22 type  1   force =     0.00000000    0.00000000    0.00000000
     atom   23 type  1   force =     0.00000000    0.00000000    0.00000000
     atom   24 type  1   force =     0.00000000    0.00000000    0.00000000
     atom   25 type  1   force =     0.00000000    0.00000000    0.00000000
     atom   26 type  1   force =     0.00000000    0.00000000    0.00000000
     atom   27 type  1   force =     0.00000000    0.00000000    0.00000000
     atom   28 type  1   force =     0.00000000    0.00000000    0.00000000
     atom   29 type  1   force =     0.00000000    0.00000000    0.00000000
     atom   30 type  1   force =     0.00000000    0.00000000    0.00000000
     atom   31 type  1   force =     0.00000000    0.00000000    0.00000000
     atom   32 type  1   force =     0.00000000    0.00000000    0.00000000
     atom   33 type  1   force =     0.00000000    0.00000000    0.00000000
     atom   34 type  1   force =     0.00000000    0.00000000    0.00000000
     atom   35 type  1   force =     0.00000000    0.00000000    0.00000000
     atom   36 type  1   force =     0.00000000    0.00000000    0.00000000
     atom   37 type  1   force =     0.00000000    0.00000000    0.00000000
     atom   38 type  1   force =     0.00000000    0.00000000    0.00000000
     atom   39 type  1   force =     0.00000000    0.00000000    0.00000000
     atom   40 type  1   force =     0.00000000    0.00000000    0.00000000
     atom   41 type  1   force =     0.00000000    0.00000000    0.00000000
     atom   42 type  1   force =     0.00000000    0.00000000    0.00000000
     atom   43 type  1   force =     0.00000000    0.00000000    0.00000000
     atom   44 type  1   force =     0.00000000    0.00000000    0.00000000
     atom   45 type  1   force =     0.00000000    0.00000000    0.00000000
     atom   46 type  1   force =     0.00000000    0.00000000    0.00000000
     atom   47 type  1   force =     0.00000000    0.00000000    0.00000000
     atom   48 type  1   force =     0.00000000    0.00000000    0.00000000
     atom   49 type  1   force =     0.00000000    0.00000000    0.00000000
     atom   50 type  1   force =     0.00000000    0.00000000    0.00000000
     atom   51 type  1   force =     0.00000000    0.00000000    0.00000000
     atom   52 type  1   force =     0.00000000    0.00000000    0.00000000
     atom   53 type  1   force =     0.00000000    0.00000000    0.00000000
     atom   54 type  1   force =     0.00000000    0.00000000    0.00000000
     atom   55 type  1   force =     0.00000000    0.00000000    0.00000000
     atom   56 type  2   force =     0.00000000    0.00000000    0.00000000
     The SCF correction term to forces
     atom    1 type  1   force =    -0.00000987    0.00001882   -0.00005157
     atom    2 type  1   force =    -0.00000588    0.00001967   -0.00004335
     atom    3 type  1   force =     0.00000316    0.00003685    0.00000085
     atom    4 type  1   force =    -0.00002876    0.00000403   -0.00004231
     atom    5 type  1   force =    -0.00005483    0.00000375   -0.00003680
     atom    6 type  1   force =    -0.00004211   -0.00002366   -0.00003806
     atom    7 type  1   force =    -0.00003340    0.00001262   -0.00009155
     atom    8 type  1   force =    -0.00004300   -0.00001026    0.00001617
     atom    9 type  1   force =     0.00001500    0.00001344    0.00000867
     atom   10 type  1   force =     0.00000819   -0.00000250   -0.00002970
     atom   11 type  1   force =    -0.00001219    0.00002007   -0.00006957
     atom   12 type  1   force =     0.00000624   -0.00001279    0.00002046
     atom   13 type  1   force =    -0.00003044   -0.00000567   -0.00008539
     atom   14 type  1   force =    -0.00004897    0.00000857   -0.00006319
     atom   15 type  1   force =    -0.00004848    0.00001643   -0.00007421
     atom   16 type  1   force =    -0.00002672    0.00001026   -0.00009517
     atom   17 type  1   force =    -0.00005053    0.00001693   -0.00000095
     atom   18 type  1   force =    -0.00004741    0.00002902   -0.00000395
     atom   19 type  1   force =     0.00000688   -0.00002620   -0.00003485
     atom   20 type  1   force =    -0.00000542   -0.00000362   -0.00003840
     atom   21 type  1   force =    -0.00003725    0.00001662   -0.00005341
     atom   22 type  1   force =     0.00001220    0.00003346   -0.00000689
     atom   23 type  1   force =     0.00002084    0.00003666   -0.00006715
     atom   24 type  1   force =     0.00003002    0.00003955   -0.00003461
     atom   25 type  1   force =     0.00002223    0.00004908    0.00002012
     atom   26 type  1   force =     0.00000847   -0.00000426   -0.00005959
     atom   27 type  1   force =     0.00001374   -0.00000190   -0.00007265
     atom   28 type  1   force =     0.00005606   -0.00001973   -0.00005247
     atom   29 type  1   force =     0.00006902    0.00002420   -0.00010226
     atom   30 type  1   force =     0.00000130   -0.00004138    0.00000872
     atom   31 type  1   force =     0.00005501   -0.00002228    0.00000337
     atom   32 type  1   force =     0.00001124    0.00002547    0.00002124
     atom   33 type  1   force =     0.00001720   -0.00000714   -0.00006549
     atom   34 type  1   force =     0.00005099    0.00001311   -0.00006172
     atom   35 type  1   force =     0.00001094   -0.00002686    0.00002540
     atom   36 type  1   force =     0.00002598    0.00001750   -0.00012337
     atom   37 type  1   force =     0.00000545    0.00002098   -0.00008535
     atom   38 type  1   force =     0.00007769    0.00000023   -0.00009402
     atom   39 type  1   force =     0.00005911   -0.00000683   -0.00011520
     atom   40 type  1   force =    -0.00000268    0.00001001    0.00002411
     atom   41 type  1   force =     0.00004975    0.00002452    0.00000514
     atom   42 type  1   force =     0.00000303   -0.00003940    0.00000703
     atom   43 type  1   force =     0.00000860   -0.00004053   -0.00004690
     atom   44 type  1   force =    -0.00000056   -0.00000089   -0.00007487
     atom   45 type  1   force =     0.00004117    0.00002593   -0.00006053
     atom   46 type  1   force =    -0.00000826    0.00004342    0.00000066
     atom   47 type  1   force =     0.00000171    0.00005110   -0.00002500
     atom   48 type  1   force =     0.00002731    0.00003167   -0.00005151
     atom   49 type  1   force =     0.00005704    0.00000120   -0.00007767
     atom   50 type  1   force =    -0.00001740    0.00000628    0.00003566
     atom   51 type  1   force =    -0.00000662   -0.00004243   -0.00003373
     atom   52 type  1   force =     0.00001814    0.00000090   -0.00008740
     atom   53 type  1   force =     0.00005609    0.00000033   -0.00007631
     atom   54 type  1   force =     0.00006344   -0.00000453   -0.00002082
     atom   55 type  1   force =     0.00001811   -0.00002435   -0.00006247
     atom   56 type  2   force =     0.00000100    0.00000142   -0.00000216

     Total force =     0.003090     Total SCF correction =     0.000524
     SCF correction compared to forces is large: reduce conv_thr to get better values
     Energy error            =      1.9E-05 Ry
     Gradient error          =      8.2E-04 Ry/Bohr

     bfgs converged in  29 scf cycles and  28 bfgs steps
     (criteria: energy <  1.0E-04 Ry, force <  1.0E-03 Ry/Bohr)

     End of BFGS Geometry Optimization

     Final energy             =  -11591.5449040210 Ry

     File ./out/calc.bfgs deleted, as requested
Begin final coordinates

ATOMIC_POSITIONS (angstrom)
Pt              -3.9218572049       -1.9471477076       -1.9471477076
Pt              -1.9077619794       -3.9536047229       -1.9503666339
Pt              -1.9077619794       -1.9503666339       -3.9536047229
Pt              -3.7416519530       -3.8668271270        0.0169064386
Pt              -3.9213401550       -1.9297248703        1.9127418629
Pt              -1.8817670598       -3.9527984652        1.9317998516
Pt              -1.9444264787       -1.9402582563       -0.0088457763
Pt              -1.9050379492       -1.9153053815        3.9437854239
Pt              -3.7416519530        0.0169064386       -3.8668271270
Pt              -3.9213401550        1.9127418629       -1.9297248703
Pt              -1.9444264787       -0.0088457763       -1.9402582563
Pt              -1.8817670598        1.9317998516       -3.9527984652
Pt              -4.2607269254        0.0135856919        0.0135856919
Pt              -3.9588476529        1.8904979612        1.8904979612
Pt              -1.9472797837       -0.0120716246        1.9161187830
Pt              -1.9472797837        1.9161187830       -0.0120716246
Pt              -3.7954015646       -0.0098446486        3.8183611059
Pt              -1.9191355173        1.9045395653        3.9243987040
Pt              -1.9050379492        3.9437854239       -1.9153053815
Pt              -3.7954015646        3.8183611059       -0.0098446486
Pt              -1.9191355173        3.9243987040        1.9045395653
Pt               0.0245367464       -3.8248542338       -3.8248542338
Pt              -0.0147055302       -1.9381781441       -1.9381781441
Pt               1.9059147879       -3.9377818048       -1.9069824623
Pt               1.9059147879       -1.9069824623       -3.9377818048
Pt              -0.0070728323       -4.1411688970       -0.0080442498
Pt              -0.0134025945       -1.9266886632        1.9243945188
Pt               1.8944145699       -3.9317572157        1.9068158467
Pt               1.9153438661       -1.9272380836       -0.0040398809
Pt               0.0129144806       -3.7965670966        3.8352037220
Pt               1.9121598713       -1.9027833984        3.9284247092
Pt              -0.0070728323       -0.0080442498       -4.1411688970
Pt              -0.0134025945        1.9243945188       -1.9266886632
Pt               1.9153438661       -0.0040398809       -1.9272380836
Pt               1.8944145699        1.9068158467       -3.9317572157
Pt              -0.0238301858       -0.0114181075       -0.0114181075
Pt              -0.0201419451        1.9139043310        1.9139043310
Pt               1.9151603944       -0.0035828016        1.9205592638
Pt               1.9151603944        1.9205592638       -0.0035828016
Pt              -0.0047368487        0.0014154956        4.1416180140
Pt               1.8977015673        1.9058590067        3.9267225400
Pt               0.0129144806        3.8352037220       -3.7965670966
Pt               1.9121598713        3.9284247092       -1.9027833984
Pt              -0.0047368487        4.1416180140        0.0014154956
Pt               1.8977015673        3.9267225400        1.9058590067
Pt              -0.0095888736        3.8003668653        3.8003668653
Pt               3.9302096456       -1.9099145270       -1.9099145270
Pt               3.8023419570       -3.8044265066        0.0015159059
Pt               3.9283204188       -1.9071633276        1.9097409168
Pt               3.8023419570        0.0015159059       -3.8044265066
Pt               3.9283204188        1.9097409168       -1.9071633276
Pt               4.1359835554       -0.0022361260       -0.0022361260
Pt               3.9247966619        1.9041541628        1.9041541628
Pt               3.8065213127        0.0075553822        3.8098224404
Pt               3.8065213127        3.8098224404        0.0075553822
H               -5.1593450410       -1.0395119586       -1.0395119586
End final coordinates



     Writing all to output data dir ./out/calc.save/ :
     XML data file, charge density, pseudopotentials, collected wavefunctions
 
     init_run     :     15.38s CPU     16.56s WALL (       1 calls)
     electrons    : 233858.01s CPU 238394.45s WALL (      29 calls)
     update_pot   :     65.12s CPU     72.59s WALL (      28 calls)
     forces       :    200.81s CPU    215.52s WALL (      29 calls)

     Called by init_run:
     wfcinit      :      8.72s CPU      9.34s WALL (       1 calls)
     wfcinit:atom :      0.04s CPU      0.08s WALL (       2 calls)
     wfcinit:wfcr :      8.37s CPU      8.90s WALL (       2 calls)
     potinit      :      3.52s CPU      3.83s WALL (       1 calls)
     hinit0       :      0.82s CPU      0.90s WALL (       1 calls)

     Called by electrons:
     c_bands      : 224601.12s CPU 228322.04s WALL (    1178 calls)
     sum_band     :   5583.49s CPU   5911.17s WALL (    1178 calls)
     v_of_rho     :   2626.46s CPU   2938.09s WALL (    1194 calls)
     v_h          :     36.46s CPU     39.84s WALL (    1194 calls)
     v_xc         :   2652.57s CPU   2968.69s WALL (    1223 calls)
     newd         :    937.36s CPU   1063.85s WALL (    1194 calls)
     mix_rho      :    109.19s CPU    117.20s WALL (    1178 calls)

     Called by c_bands:
     init_us_2    :    246.24s CPU    249.13s WALL (    4772 calls)
     rcgdiagg     : 216669.27s CPU 219965.37s WALL (    2416 calls)
     wfcrot       :   7726.43s CPU   8118.21s WALL (    2334 calls)

     Called by sum_band:
     sum_band:wei :      2.01s CPU      2.03s WALL (    1178 calls)
     sum_band:loo :   4187.07s CPU   4379.96s WALL (    1178 calls)
     sum_band:buf :     45.87s CPU     46.46s WALL (    2356 calls)
     sum_band:ini :    121.98s CPU    123.24s WALL (    2356 calls)
     sum_band:cal :    688.90s CPU    693.44s WALL (    2356 calls)
     sum_band:bec :      5.21s CPU      5.26s WALL (    2356 calls)
     addusdens    :   1325.13s CPU   1454.71s WALL (    1178 calls)
                                        0.00s GPU  (    1178 calls)
     addusd:skk   :     36.38s CPU     64.09s WALL (    2356 calls)
                                        0.00s GPU  (    2356 calls)

     Called by *cgdiagg:
     h_psi        :  98468.10s CPU 101084.33s WALL ( 2907534 calls)
     s_psi        :  67682.54s CPU  68255.98s WALL ( 5812734 calls)

     Called by h_psi:
     h_psi:calbec :  37523.19s CPU  37818.28s WALL ( 2907534 calls)
     vloc_psi     :  26578.97s CPU  28622.34s WALL ( 2907534 calls)
     add_vuspsi   :  34239.58s CPU  34523.96s WALL ( 2907534 calls)
     hs_1psi      : 126128.58s CPU 128679.47s WALL ( 2905200 calls)
     s_1psi       :  69329.77s CPU  69890.54s WALL ( 2905200 calls)

     General routines
     calbec       :  73969.65s CPU  74561.62s WALL ( 5815322 calls)
     fft          :   1403.79s CPU   1625.87s WALL (   83074 calls)
     ffts         :     17.61s CPU     20.22s WALL (    3566 calls)
     fftw         :  16298.31s CPU  18306.30s WALL ( 7672024 calls)
     interpolate  :     60.44s CPU     68.49s WALL (    2388 calls)
 
     Parallel routines
 
     PWSCF        :   2d17h 3m CPU   2d18h19m WALL

 
   This run was terminated on:  22:29:47  19Jan2025            

=------------------------------------------------------------------------------=
   JOB DONE.
=------------------------------------------------------------------------------=
