
     Program PWSCF v.7.3.1 starts on  6May2025 at 10:49:34 

     This program is part of the open-source Quantum ESPRESSO suite
     for quantum simulation of materials; please cite
         "P. Giannozzi et al., J. Phys.:Condens. Matter 21 395502 (2009);
         "P. Giannozzi et al., J. Phys.:Condens. Matter 29 465901 (2017);
         "P. Giannozzi et al., J. Chem. Phys. 152 154105 (2020);
          URL http://www.quantum-espresso.org", 
     in publications or presentations arising from this work. More details at
     http://www.quantum-espresso.org/quote

     Parallel version (MPI), running on    36 processors

     MPI processes distributed on     1 nodes
     145543 MiB available memory on the printing compute node when the environment starts
 
     Reading input from espresso.pwi
Warning: card   &CELL ignored
Warning: card      CELL_DOFREE = 'IBRAV' ignored
Warning: card / ignored

     Current dimensions of program PWSCF are:
     Max number of different atomic species (ntypx) = 10
     Max number of k-points (npk) =  40000
     Max angular momentum in pseudopotentials (lmaxx) =  4
     Message from routine iosys:
     restart disabled: needed files not found

     IMPORTANT: XC functional enforced from input :
     Exchange-correlation= RVV10
                           (   1   4  13   4  26   0   0)
     Any further DFT definition will be discarded
     Please, verify this is what you really want


     Atomic positions and unit cell read from directory:
     ./out/calc.save/
     Message from routine qexsd_readschema :
     xml data file ./out/calc.save/data-file-schema.xml not found
     Nothing found: using input atomic positions and unit cell


     gamma-point specific algorithms are used
     Message from routine setup:
     using ibrav=0 with symmetry is DISCOURAGED, use correct ibrav instead
 
     R & G space division:  proc/nbgrp/npool/nimage =      36
     Subspace diagonalization in iterative solution of the eigenvalue problem:
     one sub-group per band group will be used
     scalapack distributed-memory algorithm (size of sub-group:  6*  6 procs)

 
     Parallelization info
     --------------------
     sticks:   dense  smooth     PW     G-vecs:    dense   smooth      PW
     Min        2366    1183    295               520102   183878   22972
     Max        2368    1188    298               520116   183884   22980
     Sum       85225   42641  10669             18723953  6619737  827137
 
     Using Slab Decomposition
 

     Title: 
     calc                                                                       


     bravais-lattice index     =            0
     lattice parameter (alat)  =      47.2432  a.u.
     unit-cell volume          =  105442.7265 (a.u.)^3
     number of atoms/cell      =          116
     number of atomic types    =            1
     number of electrons       =      1856.00
     number of Kohn-Sham states=         1114
     kinetic-energy cutoff     =      60.0000  Ry
     charge density cutoff     =     480.0000  Ry
     scf convergence threshold =      1.0E-06
     mixing beta               =       0.1000
     number of iterations used =            8  local-TF  mixing
     energy convergence thresh.=      1.0E-04
     force convergence thresh. =      1.0E-03
     Exchange-correlation= RVV10
                           (   1   4  13   4  26   0   0)
     nstep                     =        10000


     celldm(1)=  47.243153  celldm(2)=   0.000000  celldm(3)=   0.000000
     celldm(4)=   0.000000  celldm(5)=   0.000000  celldm(6)=   0.000000

     crystal axes: (cart. coord. in units of alat)
               a(1) = (   1.000000   0.000000   0.000000 )  
               a(2) = (   0.000000   1.000000   0.000000 )  
               a(3) = (   0.000000   0.000000   1.000000 )  

     reciprocal axes: (cart. coord. in units 2 pi/alat)
               b(1) = (  1.000000  0.000000  0.000000 )  
               b(2) = (  0.000000  1.000000  0.000000 )  
               b(3) = (  0.000000  0.000000  1.000000 )  


     PseudoPot. # 1 for Pt read from file:
     /home/james/work/espresso/SSSP_1.3.0_PBE_efficiency/pt_pbe_v1.4.uspp.F.UPF
     MD5 check sum: f09d6de1a584b5a045c4fc126da2d0c4
     Pseudo is Ultrasoft + core correction, Zval = 16.0
     Generated by new atomic code, or converted to UPF format
     Using radial grid of  985 points,  6 beta functions with: 
                l(1) =   0
                l(2) =   0
                l(3) =   1
                l(4) =   1
                l(5) =   2
                l(6) =   2
     Q(r) pseudized with  8 coefficients,  rinner =    1.300   1.300   1.300
                                                       1.300   1.300

     atomic species   valence    mass     pseudopotential
     Pt               16.00   195.08400     Pt( 1.00)

     Starting magnetic structure 
     atomic species   magnetization
     Pt              0.010

     48 Sym. Ops., with inversion, found


                                    s                        frac. trans.

      isym =  1     identity                                     

 cryst.   s( 1) = (     1          0          0      )
                  (     0          1          0      )
                  (     0          0          1      )

 cart.    s( 1) = (  1.0000000  0.0000000  0.0000000 )
                  (  0.0000000  1.0000000  0.0000000 )
                  (  0.0000000  0.0000000  1.0000000 )


      isym =  2     180 deg rotation - cart. axis [0,0,1]        

 cryst.   s( 2) = (    -1          0          0      )
                  (     0         -1          0      )
                  (     0          0          1      )

 cart.    s( 2) = ( -1.0000000  0.0000000  0.0000000 )
                  (  0.0000000 -1.0000000  0.0000000 )
                  (  0.0000000  0.0000000  1.0000000 )


      isym =  3     180 deg rotation - cart. axis [0,1,0]        

 cryst.   s( 3) = (    -1          0          0      )
                  (     0          1          0      )
                  (     0          0         -1      )

 cart.    s( 3) = ( -1.0000000  0.0000000  0.0000000 )
                  (  0.0000000  1.0000000  0.0000000 )
                  (  0.0000000  0.0000000 -1.0000000 )


      isym =  4     180 deg rotation - cart. axis [1,0,0]        

 cryst.   s( 4) = (     1          0          0      )
                  (     0         -1          0      )
                  (     0          0         -1      )

 cart.    s( 4) = (  1.0000000  0.0000000  0.0000000 )
                  (  0.0000000 -1.0000000  0.0000000 )
                  (  0.0000000  0.0000000 -1.0000000 )


      isym =  5     180 deg rotation - cart. axis [1,1,0]        

 cryst.   s( 5) = (     0          1          0      )
                  (     1          0          0      )
                  (     0          0         -1      )

 cart.    s( 5) = (  0.0000000  1.0000000  0.0000000 )
                  (  1.0000000  0.0000000  0.0000000 )
                  (  0.0000000  0.0000000 -1.0000000 )


      isym =  6     180 deg rotation - cart. axis [1,-1,0]       

 cryst.   s( 6) = (     0         -1          0      )
                  (    -1          0          0      )
                  (     0          0         -1      )

 cart.    s( 6) = (  0.0000000 -1.0000000  0.0000000 )
                  ( -1.0000000  0.0000000  0.0000000 )
                  (  0.0000000  0.0000000 -1.0000000 )


      isym =  7      90 deg rotation - cart. axis [0,0,-1]       

 cryst.   s( 7) = (     0         -1          0      )
                  (     1          0          0      )
                  (     0          0          1      )

 cart.    s( 7) = (  0.0000000  1.0000000  0.0000000 )
                  ( -1.0000000  0.0000000  0.0000000 )
                  (  0.0000000  0.0000000  1.0000000 )


      isym =  8      90 deg rotation - cart. axis [0,0,1]        

 cryst.   s( 8) = (     0          1          0      )
                  (    -1          0          0      )
                  (     0          0          1      )

 cart.    s( 8) = (  0.0000000 -1.0000000  0.0000000 )
                  (  1.0000000  0.0000000  0.0000000 )
                  (  0.0000000  0.0000000  1.0000000 )


      isym =  9     180 deg rotation - cart. axis [1,0,1]        

 cryst.   s( 9) = (     0          0          1      )
                  (     0         -1          0      )
                  (     1          0          0      )

 cart.    s( 9) = (  0.0000000  0.0000000  1.0000000 )
                  (  0.0000000 -1.0000000  0.0000000 )
                  (  1.0000000  0.0000000  0.0000000 )


      isym = 10     180 deg rotation - cart. axis [-1,0,1]       

 cryst.   s(10) = (     0          0         -1      )
                  (     0         -1          0      )
                  (    -1          0          0      )

 cart.    s(10) = (  0.0000000  0.0000000 -1.0000000 )
                  (  0.0000000 -1.0000000  0.0000000 )
                  ( -1.0000000  0.0000000  0.0000000 )


      isym = 11      90 deg rotation - cart. axis [0,1,0]        

 cryst.   s(11) = (     0          0         -1      )
                  (     0          1          0      )
                  (     1          0          0      )

 cart.    s(11) = (  0.0000000  0.0000000  1.0000000 )
                  (  0.0000000  1.0000000  0.0000000 )
                  ( -1.0000000  0.0000000  0.0000000 )


      isym = 12      90 deg rotation - cart. axis [0,-1,0]       

 cryst.   s(12) = (     0          0          1      )
                  (     0          1          0      )
                  (    -1          0          0      )

 cart.    s(12) = (  0.0000000  0.0000000 -1.0000000 )
                  (  0.0000000  1.0000000  0.0000000 )
                  (  1.0000000  0.0000000  0.0000000 )


      isym = 13     180 deg rotation - cart. axis [0,1,1]        

 cryst.   s(13) = (    -1          0          0      )
                  (     0          0          1      )
                  (     0          1          0      )

 cart.    s(13) = ( -1.0000000  0.0000000  0.0000000 )
                  (  0.0000000  0.0000000  1.0000000 )
                  (  0.0000000  1.0000000  0.0000000 )


      isym = 14     180 deg rotation - cart. axis [0,1,-1]       

 cryst.   s(14) = (    -1          0          0      )
                  (     0          0         -1      )
                  (     0         -1          0      )

 cart.    s(14) = ( -1.0000000  0.0000000  0.0000000 )
                  (  0.0000000  0.0000000 -1.0000000 )
                  (  0.0000000 -1.0000000  0.0000000 )


      isym = 15      90 deg rotation - cart. axis [-1,0,0]       

 cryst.   s(15) = (     1          0          0      )
                  (     0          0         -1      )
                  (     0          1          0      )

 cart.    s(15) = (  1.0000000  0.0000000  0.0000000 )
                  (  0.0000000  0.0000000  1.0000000 )
                  (  0.0000000 -1.0000000  0.0000000 )


      isym = 16      90 deg rotation - cart. axis [1,0,0]        

 cryst.   s(16) = (     1          0          0      )
                  (     0          0          1      )
                  (     0         -1          0      )

 cart.    s(16) = (  1.0000000  0.0000000  0.0000000 )
                  (  0.0000000  0.0000000 -1.0000000 )
                  (  0.0000000  1.0000000  0.0000000 )


      isym = 17     120 deg rotation - cart. axis [-1,-1,-1]     

 cryst.   s(17) = (     0          0          1      )
                  (     1          0          0      )
                  (     0          1          0      )

 cart.    s(17) = (  0.0000000  1.0000000  0.0000000 )
                  (  0.0000000  0.0000000  1.0000000 )
                  (  1.0000000  0.0000000  0.0000000 )


      isym = 18     120 deg rotation - cart. axis [-1,1,1]       

 cryst.   s(18) = (     0          0         -1      )
                  (    -1          0          0      )
                  (     0          1          0      )

 cart.    s(18) = (  0.0000000 -1.0000000  0.0000000 )
                  (  0.0000000  0.0000000  1.0000000 )
                  ( -1.0000000  0.0000000  0.0000000 )


      isym = 19     120 deg rotation - cart. axis [1,1,-1]       

 cryst.   s(19) = (     0          0         -1      )
                  (     1          0          0      )
                  (     0         -1          0      )

 cart.    s(19) = (  0.0000000  1.0000000  0.0000000 )
                  (  0.0000000  0.0000000 -1.0000000 )
                  ( -1.0000000  0.0000000  0.0000000 )


      isym = 20     120 deg rotation - cart. axis [1,-1,1]       

 cryst.   s(20) = (     0          0          1      )
                  (    -1          0          0      )
                  (     0         -1          0      )

 cart.    s(20) = (  0.0000000 -1.0000000  0.0000000 )
                  (  0.0000000  0.0000000 -1.0000000 )
                  (  1.0000000  0.0000000  0.0000000 )


      isym = 21     120 deg rotation - cart. axis [1,1,1]        

 cryst.   s(21) = (     0          1          0      )
                  (     0          0          1      )
                  (     1          0          0      )

 cart.    s(21) = (  0.0000000  0.0000000  1.0000000 )
                  (  1.0000000  0.0000000  0.0000000 )
                  (  0.0000000  1.0000000  0.0000000 )


      isym = 22     120 deg rotation - cart. axis [-1,1,-1]      

 cryst.   s(22) = (     0         -1          0      )
                  (     0          0         -1      )
                  (     1          0          0      )

 cart.    s(22) = (  0.0000000  0.0000000  1.0000000 )
                  ( -1.0000000  0.0000000  0.0000000 )
                  (  0.0000000 -1.0000000  0.0000000 )


      isym = 23     120 deg rotation - cart. axis [1,-1,-1]      

 cryst.   s(23) = (     0         -1          0      )
                  (     0          0          1      )
                  (    -1          0          0      )

 cart.    s(23) = (  0.0000000  0.0000000 -1.0000000 )
                  ( -1.0000000  0.0000000  0.0000000 )
                  (  0.0000000  1.0000000  0.0000000 )


      isym = 24     120 deg rotation - cart. axis [-1,-1,1]      

 cryst.   s(24) = (     0          1          0      )
                  (     0          0         -1      )
                  (    -1          0          0      )

 cart.    s(24) = (  0.0000000  0.0000000 -1.0000000 )
                  (  1.0000000  0.0000000  0.0000000 )
                  (  0.0000000 -1.0000000  0.0000000 )


      isym = 25     inversion                                    

 cryst.   s(25) = (    -1          0          0      )
                  (     0         -1          0      )
                  (     0          0         -1      )

 cart.    s(25) = ( -1.0000000  0.0000000  0.0000000 )
                  (  0.0000000 -1.0000000  0.0000000 )
                  (  0.0000000  0.0000000 -1.0000000 )


      isym = 26     inv. 180 deg rotation - cart. axis [0,0,1]   

 cryst.   s(26) = (     1          0          0      )
                  (     0          1          0      )
                  (     0          0         -1      )

 cart.    s(26) = (  1.0000000  0.0000000  0.0000000 )
                  (  0.0000000  1.0000000  0.0000000 )
                  (  0.0000000  0.0000000 -1.0000000 )


      isym = 27     inv. 180 deg rotation - cart. axis [0,1,0]   

 cryst.   s(27) = (     1          0          0      )
                  (     0         -1          0      )
                  (     0          0          1      )

 cart.    s(27) = (  1.0000000  0.0000000  0.0000000 )
                  (  0.0000000 -1.0000000  0.0000000 )
                  (  0.0000000  0.0000000  1.0000000 )


      isym = 28     inv. 180 deg rotation - cart. axis [1,0,0]   

 cryst.   s(28) = (    -1          0          0      )
                  (     0          1          0      )
                  (     0          0          1      )

 cart.    s(28) = ( -1.0000000  0.0000000  0.0000000 )
                  (  0.0000000  1.0000000  0.0000000 )
                  (  0.0000000  0.0000000  1.0000000 )


      isym = 29     inv. 180 deg rotation - cart. axis [1,1,0]   

 cryst.   s(29) = (     0         -1          0      )
                  (    -1          0          0      )
                  (     0          0          1      )

 cart.    s(29) = (  0.0000000 -1.0000000  0.0000000 )
                  ( -1.0000000  0.0000000  0.0000000 )
                  (  0.0000000  0.0000000  1.0000000 )


      isym = 30     inv. 180 deg rotation - cart. axis [1,-1,0]  

 cryst.   s(30) = (     0          1          0      )
                  (     1          0          0      )
                  (     0          0          1      )

 cart.    s(30) = (  0.0000000  1.0000000  0.0000000 )
                  (  1.0000000  0.0000000  0.0000000 )
                  (  0.0000000  0.0000000  1.0000000 )


      isym = 31     inv.  90 deg rotation - cart. axis [0,0,-1]  

 cryst.   s(31) = (     0          1          0      )
                  (    -1          0          0      )
                  (     0          0         -1      )

 cart.    s(31) = (  0.0000000 -1.0000000  0.0000000 )
                  (  1.0000000  0.0000000  0.0000000 )
                  (  0.0000000  0.0000000 -1.0000000 )


      isym = 32     inv.  90 deg rotation - cart. axis [0,0,1]   

 cryst.   s(32) = (     0         -1          0      )
                  (     1          0          0      )
                  (     0          0         -1      )

 cart.    s(32) = (  0.0000000  1.0000000  0.0000000 )
                  ( -1.0000000  0.0000000  0.0000000 )
                  (  0.0000000  0.0000000 -1.0000000 )


      isym = 33     inv. 180 deg rotation - cart. axis [1,0,1]   

 cryst.   s(33) = (     0          0         -1      )
                  (     0          1          0      )
                  (    -1          0          0      )

 cart.    s(33) = (  0.0000000  0.0000000 -1.0000000 )
                  (  0.0000000  1.0000000  0.0000000 )
                  ( -1.0000000  0.0000000  0.0000000 )


      isym = 34     inv. 180 deg rotation - cart. axis [-1,0,1]  

 cryst.   s(34) = (     0          0          1      )
                  (     0          1          0      )
                  (     1          0          0      )

 cart.    s(34) = (  0.0000000  0.0000000  1.0000000 )
                  (  0.0000000  1.0000000  0.0000000 )
                  (  1.0000000  0.0000000  0.0000000 )


      isym = 35     inv.  90 deg rotation - cart. axis [0,1,0]   

 cryst.   s(35) = (     0          0          1      )
                  (     0         -1          0      )
                  (    -1          0          0      )

 cart.    s(35) = (  0.0000000  0.0000000 -1.0000000 )
                  (  0.0000000 -1.0000000  0.0000000 )
                  (  1.0000000  0.0000000  0.0000000 )


      isym = 36     inv.  90 deg rotation - cart. axis [0,-1,0]  

 cryst.   s(36) = (     0          0         -1      )
                  (     0         -1          0      )
                  (     1          0          0      )

 cart.    s(36) = (  0.0000000  0.0000000  1.0000000 )
                  (  0.0000000 -1.0000000  0.0000000 )
                  ( -1.0000000  0.0000000  0.0000000 )


      isym = 37     inv. 180 deg rotation - cart. axis [0,1,1]   

 cryst.   s(37) = (     1          0          0      )
                  (     0          0         -1      )
                  (     0         -1          0      )

 cart.    s(37) = (  1.0000000  0.0000000  0.0000000 )
                  (  0.0000000  0.0000000 -1.0000000 )
                  (  0.0000000 -1.0000000  0.0000000 )


      isym = 38     inv. 180 deg rotation - cart. axis [0,1,-1]  

 cryst.   s(38) = (     1          0          0      )
                  (     0          0          1      )
                  (     0          1          0      )

 cart.    s(38) = (  1.0000000  0.0000000  0.0000000 )
                  (  0.0000000  0.0000000  1.0000000 )
                  (  0.0000000  1.0000000  0.0000000 )


      isym = 39     inv.  90 deg rotation - cart. axis [-1,0,0]  

 cryst.   s(39) = (    -1          0          0      )
                  (     0          0          1      )
                  (     0         -1          0      )

 cart.    s(39) = ( -1.0000000  0.0000000  0.0000000 )
                  (  0.0000000  0.0000000 -1.0000000 )
                  (  0.0000000  1.0000000  0.0000000 )


      isym = 40     inv.  90 deg rotation - cart. axis [1,0,0]   

 cryst.   s(40) = (    -1          0          0      )
                  (     0          0         -1      )
                  (     0          1          0      )

 cart.    s(40) = ( -1.0000000  0.0000000  0.0000000 )
                  (  0.0000000  0.0000000  1.0000000 )
                  (  0.0000000 -1.0000000  0.0000000 )


      isym = 41     inv. 120 deg rotation - cart. axis [-1,-1,-1]

 cryst.   s(41) = (     0          0         -1      )
                  (    -1          0          0      )
                  (     0         -1          0      )

 cart.    s(41) = (  0.0000000 -1.0000000  0.0000000 )
                  (  0.0000000  0.0000000 -1.0000000 )
                  ( -1.0000000  0.0000000  0.0000000 )


      isym = 42     inv. 120 deg rotation - cart. axis [-1,1,1]  

 cryst.   s(42) = (     0          0          1      )
                  (     1          0          0      )
                  (     0         -1          0      )

 cart.    s(42) = (  0.0000000  1.0000000  0.0000000 )
                  (  0.0000000  0.0000000 -1.0000000 )
                  (  1.0000000  0.0000000  0.0000000 )


      isym = 43     inv. 120 deg rotation - cart. axis [1,1,-1]  

 cryst.   s(43) = (     0          0          1      )
                  (    -1          0          0      )
                  (     0          1          0      )

 cart.    s(43) = (  0.0000000 -1.0000000  0.0000000 )
                  (  0.0000000  0.0000000  1.0000000 )
                  (  1.0000000  0.0000000  0.0000000 )


      isym = 44     inv. 120 deg rotation - cart. axis [1,-1,1]  

 cryst.   s(44) = (     0          0         -1      )
                  (     1          0          0      )
                  (     0          1          0      )

 cart.    s(44) = (  0.0000000  1.0000000  0.0000000 )
                  (  0.0000000  0.0000000  1.0000000 )
                  ( -1.0000000  0.0000000  0.0000000 )


      isym = 45     inv. 120 deg rotation - cart. axis [1,1,1]   

 cryst.   s(45) = (     0         -1          0      )
                  (     0          0         -1      )
                  (    -1          0          0      )

 cart.    s(45) = (  0.0000000  0.0000000 -1.0000000 )
                  ( -1.0000000  0.0000000  0.0000000 )
                  (  0.0000000 -1.0000000  0.0000000 )


      isym = 46     inv. 120 deg rotation - cart. axis [-1,1,-1] 

 cryst.   s(46) = (     0          1          0      )
                  (     0          0          1      )
                  (    -1          0          0      )

 cart.    s(46) = (  0.0000000  0.0000000 -1.0000000 )
                  (  1.0000000  0.0000000  0.0000000 )
                  (  0.0000000  1.0000000  0.0000000 )


      isym = 47     inv. 120 deg rotation - cart. axis [1,-1,-1] 

 cryst.   s(47) = (     0          1          0      )
                  (     0          0         -1      )
                  (     1          0          0      )

 cart.    s(47) = (  0.0000000  0.0000000  1.0000000 )
                  (  1.0000000  0.0000000  0.0000000 )
                  (  0.0000000 -1.0000000  0.0000000 )


      isym = 48     inv. 120 deg rotation - cart. axis [-1,-1,1] 

 cryst.   s(48) = (     0         -1          0      )
                  (     0          0          1      )
                  (     1          0          0      )

 cart.    s(48) = (  0.0000000  0.0000000  1.0000000 )
                  ( -1.0000000  0.0000000  0.0000000 )
                  (  0.0000000  1.0000000  0.0000000 )


   Cartesian axes

     site n.     atom                  positions (alat units)
         1        Pt     tau(   1) = (  -0.2317675  -0.1538077   0.0000000  )
         2        Pt     tau(   2) = (  -0.1538077  -0.2317675   0.0000000  )
         3        Pt     tau(   3) = (  -0.1617551  -0.1617551  -0.0847262  )
         4        Pt     tau(   4) = (  -0.1617551  -0.1617551   0.0847262  )
         5        Pt     tau(   5) = (  -0.2317675   0.0000000  -0.1538077  )
         6        Pt     tau(   6) = (  -0.1617551  -0.0847262  -0.1617551  )
         7        Pt     tau(   7) = (  -0.1538077   0.0000000  -0.2317675  )
         8        Pt     tau(   8) = (  -0.2338884  -0.0780548  -0.0780548  )
         9        Pt     tau(   9) = (  -0.2370085   0.0000000   0.0000000  )
        10        Pt     tau(  10) = (  -0.1554444  -0.0788785   0.0000000  )
        11        Pt     tau(  11) = (  -0.1554444   0.0000000  -0.0788785  )
        12        Pt     tau(  12) = (  -0.2338884  -0.0780548   0.0780548  )
        13        Pt     tau(  13) = (  -0.2317675   0.0000000   0.1538077  )
        14        Pt     tau(  14) = (  -0.1617551  -0.0847262   0.1617551  )
        15        Pt     tau(  15) = (  -0.1554444   0.0000000   0.0788785  )
        16        Pt     tau(  16) = (  -0.1538077   0.0000000   0.2317675  )
        17        Pt     tau(  17) = (  -0.1617551   0.0847262  -0.1617551  )
        18        Pt     tau(  18) = (  -0.2338884   0.0780548  -0.0780548  )
        19        Pt     tau(  19) = (  -0.2317675   0.1538077   0.0000000  )
        20        Pt     tau(  20) = (  -0.1554444   0.0788785   0.0000000  )
        21        Pt     tau(  21) = (  -0.1617551   0.1617551  -0.0847262  )
        22        Pt     tau(  22) = (  -0.2338884   0.0780548   0.0780548  )
        23        Pt     tau(  23) = (  -0.1617551   0.0847262   0.1617551  )
        24        Pt     tau(  24) = (  -0.1617551   0.1617551   0.0847262  )
        25        Pt     tau(  25) = (  -0.1538077   0.2317675   0.0000000  )
        26        Pt     tau(  26) = (  -0.0847262  -0.1617551  -0.1617551  )
        27        Pt     tau(  27) = (   0.0000000  -0.2317675  -0.1538077  )
        28        Pt     tau(  28) = (   0.0000000  -0.1538077  -0.2317675  )
        29        Pt     tau(  29) = (  -0.0780548  -0.2338884  -0.0780548  )
        30        Pt     tau(  30) = (  -0.0788785  -0.1554444   0.0000000  )
        31        Pt     tau(  31) = (   0.0000000  -0.2370085   0.0000000  )
        32        Pt     tau(  32) = (   0.0000000  -0.1554444  -0.0788785  )
        33        Pt     tau(  33) = (  -0.0780548  -0.2338884   0.0780548  )
        34        Pt     tau(  34) = (  -0.0847262  -0.1617551   0.1617551  )
        35        Pt     tau(  35) = (   0.0000000  -0.2317675   0.1538077  )
        36        Pt     tau(  36) = (   0.0000000  -0.1554444   0.0788785  )
        37        Pt     tau(  37) = (   0.0000000  -0.1538077   0.2317675  )
        38        Pt     tau(  38) = (  -0.0780548  -0.0780548  -0.2338884  )
        39        Pt     tau(  39) = (  -0.0788785   0.0000000  -0.1554444  )
        40        Pt     tau(  40) = (   0.0000000  -0.0788785  -0.1554444  )
        41        Pt     tau(  41) = (   0.0000000   0.0000000  -0.2370085  )
        42        Pt     tau(  42) = (  -0.0808740  -0.0808740  -0.0808740  )
        43        Pt     tau(  43) = (  -0.0786873   0.0000000   0.0000000  )
        44        Pt     tau(  44) = (   0.0000000  -0.0786873   0.0000000  )
        45        Pt     tau(  45) = (   0.0000000   0.0000000  -0.0786873  )
        46        Pt     tau(  46) = (  -0.0808740  -0.0808740   0.0808740  )
        47        Pt     tau(  47) = (  -0.0788785   0.0000000   0.1554444  )
        48        Pt     tau(  48) = (   0.0000000  -0.0788785   0.1554444  )
        49        Pt     tau(  49) = (   0.0000000   0.0000000   0.0786873  )
        50        Pt     tau(  50) = (  -0.0780548  -0.0780548   0.2338884  )
        51        Pt     tau(  51) = (   0.0000000   0.0000000   0.2370085  )
        52        Pt     tau(  52) = (  -0.0780548   0.0780548  -0.2338884  )
        53        Pt     tau(  53) = (  -0.0847262   0.1617551  -0.1617551  )
        54        Pt     tau(  54) = (   0.0000000   0.0788785  -0.1554444  )
        55        Pt     tau(  55) = (   0.0000000   0.1538077  -0.2317675  )
        56        Pt     tau(  56) = (  -0.0808740   0.0808740  -0.0808740  )
        57        Pt     tau(  57) = (  -0.0788785   0.1554444   0.0000000  )
        58        Pt     tau(  58) = (   0.0000000   0.0786873   0.0000000  )
        59        Pt     tau(  59) = (   0.0000000   0.1554444  -0.0788785  )
        60        Pt     tau(  60) = (  -0.0808740   0.0808740   0.0808740  )
        61        Pt     tau(  61) = (  -0.0847262   0.1617551   0.1617551  )
        62        Pt     tau(  62) = (   0.0000000   0.0788785   0.1554444  )
        63        Pt     tau(  63) = (   0.0000000   0.1554444   0.0788785  )
        64        Pt     tau(  64) = (  -0.0780548   0.0780548   0.2338884  )
        65        Pt     tau(  65) = (   0.0000000   0.1538077   0.2317675  )
        66        Pt     tau(  66) = (   0.0000000   0.2317675  -0.1538077  )
        67        Pt     tau(  67) = (  -0.0780548   0.2338884  -0.0780548  )
        68        Pt     tau(  68) = (   0.0000000   0.2370085   0.0000000  )
        69        Pt     tau(  69) = (  -0.0780548   0.2338884   0.0780548  )
        70        Pt     tau(  70) = (   0.0000000   0.2317675   0.1538077  )
        71        Pt     tau(  71) = (   0.0847262  -0.1617551  -0.1617551  )
        72        Pt     tau(  72) = (   0.0780548  -0.2338884  -0.0780548  )
        73        Pt     tau(  73) = (   0.0788785  -0.1554444   0.0000000  )
        74        Pt     tau(  74) = (   0.1538077  -0.2317675   0.0000000  )
        75        Pt     tau(  75) = (   0.1617551  -0.1617551  -0.0847262  )
        76        Pt     tau(  76) = (   0.0780548  -0.2338884   0.0780548  )
        77        Pt     tau(  77) = (   0.0847262  -0.1617551   0.1617551  )
        78        Pt     tau(  78) = (   0.1617551  -0.1617551   0.0847262  )
        79        Pt     tau(  79) = (   0.0780548  -0.0780548  -0.2338884  )
        80        Pt     tau(  80) = (   0.0788785   0.0000000  -0.1554444  )
        81        Pt     tau(  81) = (   0.1617551  -0.0847262  -0.1617551  )
        82        Pt     tau(  82) = (   0.1538077   0.0000000  -0.2317675  )
        83        Pt     tau(  83) = (   0.0808740  -0.0808740  -0.0808740  )
        84        Pt     tau(  84) = (   0.0786873   0.0000000   0.0000000  )
        85        Pt     tau(  85) = (   0.1554444  -0.0788785   0.0000000  )
        86        Pt     tau(  86) = (   0.1554444   0.0000000  -0.0788785  )
        87        Pt     tau(  87) = (   0.0808740  -0.0808740   0.0808740  )
        88        Pt     tau(  88) = (   0.0788785   0.0000000   0.1554444  )
        89        Pt     tau(  89) = (   0.1617551  -0.0847262   0.1617551  )
        90        Pt     tau(  90) = (   0.1554444   0.0000000   0.0788785  )
        91        Pt     tau(  91) = (   0.0780548  -0.0780548   0.2338884  )
        92        Pt     tau(  92) = (   0.1538077   0.0000000   0.2317675  )
        93        Pt     tau(  93) = (   0.0780548   0.0780548  -0.2338884  )
        94        Pt     tau(  94) = (   0.0847262   0.1617551  -0.1617551  )
        95        Pt     tau(  95) = (   0.1617551   0.0847262  -0.1617551  )
        96        Pt     tau(  96) = (   0.0808740   0.0808740  -0.0808740  )
        97        Pt     tau(  97) = (   0.0788785   0.1554444   0.0000000  )
        98        Pt     tau(  98) = (   0.1554444   0.0788785   0.0000000  )
        99        Pt     tau(  99) = (   0.1617551   0.1617551  -0.0847262  )
       100        Pt     tau( 100) = (   0.0808740   0.0808740   0.0808740  )
       101        Pt     tau( 101) = (   0.0847262   0.1617551   0.1617551  )
       102        Pt     tau( 102) = (   0.1617551   0.0847262   0.1617551  )
       103        Pt     tau( 103) = (   0.1617551   0.1617551   0.0847262  )
       104        Pt     tau( 104) = (   0.0780548   0.0780548   0.2338884  )
       105        Pt     tau( 105) = (   0.0780548   0.2338884  -0.0780548  )
       106        Pt     tau( 106) = (   0.1538077   0.2317675   0.0000000  )
       107        Pt     tau( 107) = (   0.0780548   0.2338884   0.0780548  )
       108        Pt     tau( 108) = (   0.2317675  -0.1538077   0.0000000  )
       109        Pt     tau( 109) = (   0.2317675   0.0000000  -0.1538077  )
       110        Pt     tau( 110) = (   0.2338884  -0.0780548  -0.0780548  )
       111        Pt     tau( 111) = (   0.2370085   0.0000000   0.0000000  )
       112        Pt     tau( 112) = (   0.2338884  -0.0780548   0.0780548  )
       113        Pt     tau( 113) = (   0.2317675   0.0000000   0.1538077  )
       114        Pt     tau( 114) = (   0.2338884   0.0780548  -0.0780548  )
       115        Pt     tau( 115) = (   0.2317675   0.1538077   0.0000000  )
       116        Pt     tau( 116) = (   0.2338884   0.0780548   0.0780548  )

   Crystallographic axes

     site n.     atom                  positions (cryst. coord.)
         1        Pt     tau(   1) = ( -0.2317675 -0.1538077  0.0000000  )
         2        Pt     tau(   2) = ( -0.1538077 -0.2317675  0.0000000  )
         3        Pt     tau(   3) = ( -0.1617551 -0.1617551 -0.0847262  )
         4        Pt     tau(   4) = ( -0.1617551 -0.1617551  0.0847262  )
         5        Pt     tau(   5) = ( -0.2317675  0.0000000 -0.1538077  )
         6        Pt     tau(   6) = ( -0.1617551 -0.0847262 -0.1617551  )
         7        Pt     tau(   7) = ( -0.1538077  0.0000000 -0.2317675  )
         8        Pt     tau(   8) = ( -0.2338884 -0.0780548 -0.0780548  )
         9        Pt     tau(   9) = ( -0.2370085  0.0000000  0.0000000  )
        10        Pt     tau(  10) = ( -0.1554444 -0.0788785  0.0000000  )
        11        Pt     tau(  11) = ( -0.1554444  0.0000000 -0.0788785  )
        12        Pt     tau(  12) = ( -0.2338884 -0.0780548  0.0780548  )
        13        Pt     tau(  13) = ( -0.2317675  0.0000000  0.1538077  )
        14        Pt     tau(  14) = ( -0.1617551 -0.0847262  0.1617551  )
        15        Pt     tau(  15) = ( -0.1554444  0.0000000  0.0788785  )
        16        Pt     tau(  16) = ( -0.1538077  0.0000000  0.2317675  )
        17        Pt     tau(  17) = ( -0.1617551  0.0847262 -0.1617551  )
        18        Pt     tau(  18) = ( -0.2338884  0.0780548 -0.0780548  )
        19        Pt     tau(  19) = ( -0.2317675  0.1538077  0.0000000  )
        20        Pt     tau(  20) = ( -0.1554444  0.0788785  0.0000000  )
        21        Pt     tau(  21) = ( -0.1617551  0.1617551 -0.0847262  )
        22        Pt     tau(  22) = ( -0.2338884  0.0780548  0.0780548  )
        23        Pt     tau(  23) = ( -0.1617551  0.0847262  0.1617551  )
        24        Pt     tau(  24) = ( -0.1617551  0.1617551  0.0847262  )
        25        Pt     tau(  25) = ( -0.1538077  0.2317675  0.0000000  )
        26        Pt     tau(  26) = ( -0.0847262 -0.1617551 -0.1617551  )
        27        Pt     tau(  27) = (  0.0000000 -0.2317675 -0.1538077  )
        28        Pt     tau(  28) = (  0.0000000 -0.1538077 -0.2317675  )
        29        Pt     tau(  29) = ( -0.0780548 -0.2338884 -0.0780548  )
        30        Pt     tau(  30) = ( -0.0788785 -0.1554444  0.0000000  )
        31        Pt     tau(  31) = (  0.0000000 -0.2370085  0.0000000  )
        32        Pt     tau(  32) = (  0.0000000 -0.1554444 -0.0788785  )
        33        Pt     tau(  33) = ( -0.0780548 -0.2338884  0.0780548  )
        34        Pt     tau(  34) = ( -0.0847262 -0.1617551  0.1617551  )
        35        Pt     tau(  35) = (  0.0000000 -0.2317675  0.1538077  )
        36        Pt     tau(  36) = (  0.0000000 -0.1554444  0.0788785  )
        37        Pt     tau(  37) = (  0.0000000 -0.1538077  0.2317675  )
        38        Pt     tau(  38) = ( -0.0780548 -0.0780548 -0.2338884  )
        39        Pt     tau(  39) = ( -0.0788785  0.0000000 -0.1554444  )
        40        Pt     tau(  40) = (  0.0000000 -0.0788785 -0.1554444  )
        41        Pt     tau(  41) = (  0.0000000  0.0000000 -0.2370085  )
        42        Pt     tau(  42) = ( -0.0808740 -0.0808740 -0.0808740  )
        43        Pt     tau(  43) = ( -0.0786873  0.0000000  0.0000000  )
        44        Pt     tau(  44) = (  0.0000000 -0.0786873  0.0000000  )
        45        Pt     tau(  45) = (  0.0000000  0.0000000 -0.0786873  )
        46        Pt     tau(  46) = ( -0.0808740 -0.0808740  0.0808740  )
        47        Pt     tau(  47) = ( -0.0788785  0.0000000  0.1554444  )
        48        Pt     tau(  48) = (  0.0000000 -0.0788785  0.1554444  )
        49        Pt     tau(  49) = (  0.0000000  0.0000000  0.0786873  )
        50        Pt     tau(  50) = ( -0.0780548 -0.0780548  0.2338884  )
        51        Pt     tau(  51) = (  0.0000000  0.0000000  0.2370085  )
        52        Pt     tau(  52) = ( -0.0780548  0.0780548 -0.2338884  )
        53        Pt     tau(  53) = ( -0.0847262  0.1617551 -0.1617551  )
        54        Pt     tau(  54) = (  0.0000000  0.0788785 -0.1554444  )
        55        Pt     tau(  55) = (  0.0000000  0.1538077 -0.2317675  )
        56        Pt     tau(  56) = ( -0.0808740  0.0808740 -0.0808740  )
        57        Pt     tau(  57) = ( -0.0788785  0.1554444  0.0000000  )
        58        Pt     tau(  58) = (  0.0000000  0.0786873  0.0000000  )
        59        Pt     tau(  59) = (  0.0000000  0.1554444 -0.0788785  )
        60        Pt     tau(  60) = ( -0.0808740  0.0808740  0.0808740  )
        61        Pt     tau(  61) = ( -0.0847262  0.1617551  0.1617551  )
        62        Pt     tau(  62) = (  0.0000000  0.0788785  0.1554444  )
        63        Pt     tau(  63) = (  0.0000000  0.1554444  0.0788785  )
        64        Pt     tau(  64) = ( -0.0780548  0.0780548  0.2338884  )
        65        Pt     tau(  65) = (  0.0000000  0.1538077  0.2317675  )
        66        Pt     tau(  66) = (  0.0000000  0.2317675 -0.1538077  )
        67        Pt     tau(  67) = ( -0.0780548  0.2338884 -0.0780548  )
        68        Pt     tau(  68) = (  0.0000000  0.2370085  0.0000000  )
        69        Pt     tau(  69) = ( -0.0780548  0.2338884  0.0780548  )
        70        Pt     tau(  70) = (  0.0000000  0.2317675  0.1538077  )
        71        Pt     tau(  71) = (  0.0847262 -0.1617551 -0.1617551  )
        72        Pt     tau(  72) = (  0.0780548 -0.2338884 -0.0780548  )
        73        Pt     tau(  73) = (  0.0788785 -0.1554444  0.0000000  )
        74        Pt     tau(  74) = (  0.1538077 -0.2317675  0.0000000  )
        75        Pt     tau(  75) = (  0.1617551 -0.1617551 -0.0847262  )
        76        Pt     tau(  76) = (  0.0780548 -0.2338884  0.0780548  )
        77        Pt     tau(  77) = (  0.0847262 -0.1617551  0.1617551  )
        78        Pt     tau(  78) = (  0.1617551 -0.1617551  0.0847262  )
        79        Pt     tau(  79) = (  0.0780548 -0.0780548 -0.2338884  )
        80        Pt     tau(  80) = (  0.0788785  0.0000000 -0.1554444  )
        81        Pt     tau(  81) = (  0.1617551 -0.0847262 -0.1617551  )
        82        Pt     tau(  82) = (  0.1538077  0.0000000 -0.2317675  )
        83        Pt     tau(  83) = (  0.0808740 -0.0808740 -0.0808740  )
        84        Pt     tau(  84) = (  0.0786873  0.0000000  0.0000000  )
        85        Pt     tau(  85) = (  0.1554444 -0.0788785  0.0000000  )
        86        Pt     tau(  86) = (  0.1554444  0.0000000 -0.0788785  )
        87        Pt     tau(  87) = (  0.0808740 -0.0808740  0.0808740  )
        88        Pt     tau(  88) = (  0.0788785  0.0000000  0.1554444  )
        89        Pt     tau(  89) = (  0.1617551 -0.0847262  0.1617551  )
        90        Pt     tau(  90) = (  0.1554444  0.0000000  0.0788785  )
        91        Pt     tau(  91) = (  0.0780548 -0.0780548  0.2338884  )
        92        Pt     tau(  92) = (  0.1538077  0.0000000  0.2317675  )
        93        Pt     tau(  93) = (  0.0780548  0.0780548 -0.2338884  )
        94        Pt     tau(  94) = (  0.0847262  0.1617551 -0.1617551  )
        95        Pt     tau(  95) = (  0.1617551  0.0847262 -0.1617551  )
        96        Pt     tau(  96) = (  0.0808740  0.0808740 -0.0808740  )
        97        Pt     tau(  97) = (  0.0788785  0.1554444  0.0000000  )
        98        Pt     tau(  98) = (  0.1554444  0.0788785  0.0000000  )
        99        Pt     tau(  99) = (  0.1617551  0.1617551 -0.0847262  )
       100        Pt     tau( 100) = (  0.0808740  0.0808740  0.0808740  )
       101        Pt     tau( 101) = (  0.0847262  0.1617551  0.1617551  )
       102        Pt     tau( 102) = (  0.1617551  0.0847262  0.1617551  )
       103        Pt     tau( 103) = (  0.1617551  0.1617551  0.0847262  )
       104        Pt     tau( 104) = (  0.0780548  0.0780548  0.2338884  )
       105        Pt     tau( 105) = (  0.0780548  0.2338884 -0.0780548  )
       106        Pt     tau( 106) = (  0.1538077  0.2317675  0.0000000  )
       107        Pt     tau( 107) = (  0.0780548  0.2338884  0.0780548  )
       108        Pt     tau( 108) = (  0.2317675 -0.1538077  0.0000000  )
       109        Pt     tau( 109) = (  0.2317675  0.0000000 -0.1538077  )
       110        Pt     tau( 110) = (  0.2338884 -0.0780548 -0.0780548  )
       111        Pt     tau( 111) = (  0.2370085  0.0000000  0.0000000  )
       112        Pt     tau( 112) = (  0.2338884 -0.0780548  0.0780548  )
       113        Pt     tau( 113) = (  0.2317675  0.0000000  0.1538077  )
       114        Pt     tau( 114) = (  0.2338884  0.0780548 -0.0780548  )
       115        Pt     tau( 115) = (  0.2317675  0.1538077  0.0000000  )
       116        Pt     tau( 116) = (  0.2338884  0.0780548  0.0780548  )

     number of k points=     1  Gaussian smearing, width (Ry)=  0.0100
                       cart. coord. in units 2pi/alat
        k(    1) = (   0.0000000   0.0000000   0.0000000), wk =   1.0000000

                       cryst. coord.
        k(    1) = (   0.0000000   0.0000000   0.0000000), wk =   1.0000000

     Dense  grid:  9361977 G-vectors     FFT dimensions: ( 360, 360, 360)

     Smooth grid:  3309869 G-vectors     FFT dimensions: ( 240, 240, 240)

     Dynamical RAM for                 wfc:     195.36 MB

     Dynamical RAM for     wfc (w. buffer):     586.08 MB

     Dynamical RAM for           str. fact:       3.97 MB

     Dynamical RAM for           local pot:       0.00 MB

     Dynamical RAM for          nlocal pot:     366.17 MB

     Dynamical RAM for                qrad:       1.76 MB

     Dynamical RAM for          rho,v,vnew:      83.14 MB

     Dynamical RAM for               rhoin:      27.71 MB

     Dynamical RAM for            rho*nmix:     126.98 MB

     Dynamical RAM for           G-vectors:      15.58 MB

     Dynamical RAM for          h,s,v(r/c):       0.78 MB

     Dynamical RAM for          <psi|beta>:      17.75 MB

     Dynamical RAM for      wfcinit/wfcrot:     419.14 MB

     Dynamical RAM for           addusdens:    1202.36 MB

     Dynamical RAM for          addusforce:    2115.94 MB

     Estimated static dynamical RAM per process >       1.12 GB

     Estimated max dynamical RAM per process >       3.32 GB

     Estimated total dynamical RAM >     119.34 GB
     Generating pointlists ...
     new r_m :   0.0441 (alat units)  2.0843 (a.u.) for type    1
     Cannot read rho : file not found

     Initial potential from superposition of free atoms

     starting charge    1797.9987, renormalised to    1856.0000

     negative rho (up, down):  1.111E+01 1.089E+01


---------------------------------------------------------------------------------
Carrying out rVV10 run using the following parameters:
Nqs =      20    Nr_points =    1024   r_max =   100.000
b_value =  6.30000    beta =  0.00901
     q_mesh =  0.00010000  0.00030000  0.00058939  0.00100810
               0.00161396  0.00249058  0.00375900  0.00559430
               0.00824984  0.01209221  0.01765183  0.02569619
               0.03733578  0.05417739  0.07854596  0.11380545
               0.16482331  0.23864234  0.34545298  0.50000000

Gradients computed in Reciprocal space

---------------------------------------------------------------------------------




     ----------------------------------------------------------------

     Non-local correlation energy =             19.952436567026069

     ----------------------------------------------------------------

     Message from routine qexsd_readschema :
     xml data file ./out/calc.save/data-file-schema.xml not found
     Cannot read wfcs: file not found
     Starting wfcs are 1392 randomized atomic wfcs

     total cpu time spent up to now is      100.9 secs

     Self-consistent Calculation

     iteration #  1     ecut=    60.00 Ry     beta= 0.10
     CG style diagonalization

---- Real-time Memory Report at c_bands before calling an iterative solver
             0 MiB given to the printing process from OS
             0 MiB allocation reported by mallinfo(arena+hblkhd)
        100143 MiB available memory on the node where the printing process lives
------------------
     c_bands:  3 eigenvalues not converged
     c_bands:  1 eigenvalues not converged
     ethr =  1.00E-05,  avg # of iterations = 30.2

     negative rho (up, down):  1.121E+01 1.101E+01


     ----------------------------------------------------------------

     Non-local correlation energy =             19.770563136360600

     ----------------------------------------------------------------


     total cpu time spent up to now is    23680.0 secs

     total energy              =  -24483.65834084 Ry
     estimated scf accuracy    <     671.39771928 Ry

     total magnetization       =     7.92 Bohr mag/cell
     absolute magnetization    =     8.32 Bohr mag/cell

     iteration #  2     ecut=    60.00 Ry     beta= 0.10
     CG style diagonalization

---- Real-time Memory Report at c_bands before calling an iterative solver
             0 MiB given to the printing process from OS
             0 MiB allocation reported by mallinfo(arena+hblkhd)
         97364 MiB available memory on the node where the printing process lives
------------------
     ethr =  1.00E-02,  avg # of iterations =  3.0

     negative rho (up, down):  1.188E+01 1.177E+01


     ----------------------------------------------------------------

     Non-local correlation energy =             18.939637413205705

     ----------------------------------------------------------------


     total cpu time spent up to now is    25582.5 secs

     total energy              =  -24419.81248075 Ry
     estimated scf accuracy    <     470.78207961 Ry

     total magnetization       =     8.50 Bohr mag/cell
     absolute magnetization    =     8.91 Bohr mag/cell

     iteration #  3     ecut=    60.00 Ry     beta= 0.10
     CG style diagonalization

---- Real-time Memory Report at c_bands before calling an iterative solver
             0 MiB given to the printing process from OS
             0 MiB allocation reported by mallinfo(arena+hblkhd)
         97084 MiB available memory on the node where the printing process lives
------------------
     ethr =  1.00E-02,  avg # of iterations =  3.1

     negative rho (up, down):  1.175E+01 1.165E+01


     ----------------------------------------------------------------

     Non-local correlation energy =             18.840867144075325

     ----------------------------------------------------------------


     total cpu time spent up to now is    27623.4 secs

     total energy              =  -24444.06330977 Ry
     estimated scf accuracy    <       8.96143151 Ry

     total magnetization       =     7.50 Bohr mag/cell
     absolute magnetization    =     8.00 Bohr mag/cell

     iteration #  4     ecut=    60.00 Ry     beta= 0.10
     CG style diagonalization

---- Real-time Memory Report at c_bands before calling an iterative solver
             0 MiB given to the printing process from OS
             0 MiB allocation reported by mallinfo(arena+hblkhd)
         96801 MiB available memory on the node where the printing process lives
------------------
     c_bands:  2 eigenvalues not converged
     c_bands:  1 eigenvalues not converged
     ethr =  4.83E-04,  avg # of iterations =  4.5

     negative rho (up, down):  1.163E+01 1.153E+01


     ----------------------------------------------------------------

     Non-local correlation energy =             18.855140829191654

     ----------------------------------------------------------------


     total cpu time spent up to now is    30953.5 secs

     total energy              =  -24447.91362195 Ry
     estimated scf accuracy    <       6.15602281 Ry

     total magnetization       =     8.25 Bohr mag/cell
     absolute magnetization    =     8.60 Bohr mag/cell

     iteration #  5     ecut=    60.00 Ry     beta= 0.10
     CG style diagonalization

---- Real-time Memory Report at c_bands before calling an iterative solver
             0 MiB given to the printing process from OS
             0 MiB allocation reported by mallinfo(arena+hblkhd)
         96527 MiB available memory on the node where the printing process lives
------------------
     c_bands:  1 eigenvalues not converged
     ethr =  3.32E-04,  avg # of iterations =  3.0

     negative rho (up, down):  1.167E+01 1.158E+01


     ----------------------------------------------------------------

     Non-local correlation energy =             18.851069293119984

     ----------------------------------------------------------------


     total cpu time spent up to now is    32882.5 secs

     total energy              =  -24448.25252758 Ry
     estimated scf accuracy    <       6.60594324 Ry

     total magnetization       =     7.84 Bohr mag/cell
     absolute magnetization    =     8.13 Bohr mag/cell

     iteration #  6     ecut=    60.00 Ry     beta= 0.10
     CG style diagonalization

---- Real-time Memory Report at c_bands before calling an iterative solver
             0 MiB given to the printing process from OS
             0 MiB allocation reported by mallinfo(arena+hblkhd)
         96256 MiB available memory on the node where the printing process lives
------------------
     ethr =  3.32E-04,  avg # of iterations =  3.0

     negative rho (up, down):  1.087E+01 1.079E+01


     ----------------------------------------------------------------

     Non-local correlation energy =             18.846648645513351

     ----------------------------------------------------------------


     total cpu time spent up to now is    34785.8 secs

     total energy              =  -24447.63913938 Ry
     estimated scf accuracy    <       7.88096423 Ry

     total magnetization       =     7.96 Bohr mag/cell
     absolute magnetization    =     8.27 Bohr mag/cell

     iteration #  7     ecut=    60.00 Ry     beta= 0.10
     CG style diagonalization

---- Real-time Memory Report at c_bands before calling an iterative solver
             0 MiB given to the printing process from OS
             0 MiB allocation reported by mallinfo(arena+hblkhd)
         96024 MiB available memory on the node where the printing process lives
------------------
     ethr =  3.32E-04,  avg # of iterations =  3.0

     negative rho (up, down):  1.092E+01 1.086E+01


     ----------------------------------------------------------------

     Non-local correlation energy =             18.776794565252466

     ----------------------------------------------------------------


     total cpu time spent up to now is    36707.2 secs

     total energy              =  -24447.60960001 Ry
     estimated scf accuracy    <       4.11847506 Ry

     total magnetization       =     5.21 Bohr mag/cell
     absolute magnetization    =     5.62 Bohr mag/cell

     iteration #  8     ecut=    60.00 Ry     beta= 0.10
     CG style diagonalization

---- Real-time Memory Report at c_bands before calling an iterative solver
             0 MiB given to the printing process from OS
             0 MiB allocation reported by mallinfo(arena+hblkhd)
         95789 MiB available memory on the node where the printing process lives
------------------
     c_bands:  1 eigenvalues not converged
     c_bands:  1 eigenvalues not converged
     ethr =  2.22E-04,  avg # of iterations =  3.1

     negative rho (up, down):  1.079E+01 1.073E+01


     ----------------------------------------------------------------

     Non-local correlation energy =             18.750122585223117

     ----------------------------------------------------------------


     total cpu time spent up to now is    38690.6 secs

     total energy              =  -24447.79914728 Ry
     estimated scf accuracy    <       0.22019161 Ry

     total magnetization       =     5.62 Bohr mag/cell
     absolute magnetization    =     6.01 Bohr mag/cell

     iteration #  9     ecut=    60.00 Ry     beta= 0.10
     CG style diagonalization

---- Real-time Memory Report at c_bands before calling an iterative solver
             0 MiB given to the printing process from OS
             0 MiB allocation reported by mallinfo(arena+hblkhd)
         95571 MiB available memory on the node where the printing process lives
------------------
     c_bands:  2 eigenvalues not converged
     c_bands:  2 eigenvalues not converged
     ethr =  1.19E-05,  avg # of iterations =  8.4

     negative rho (up, down):  1.058E+01 1.052E+01


     ----------------------------------------------------------------

     Non-local correlation energy =             18.798080176060758

     ----------------------------------------------------------------


     total cpu time spent up to now is    44648.4 secs

     total energy              =  -24447.78710114 Ry
     estimated scf accuracy    <       0.44680313 Ry

     total magnetization       =     5.39 Bohr mag/cell
     absolute magnetization    =     5.78 Bohr mag/cell

     iteration # 10     ecut=    60.00 Ry     beta= 0.10
     CG style diagonalization

---- Real-time Memory Report at c_bands before calling an iterative solver
             0 MiB given to the printing process from OS
             0 MiB allocation reported by mallinfo(arena+hblkhd)
         95366 MiB available memory on the node where the printing process lives
------------------
     c_bands:  1 eigenvalues not converged
     c_bands:  1 eigenvalues not converged
     ethr =  1.19E-05,  avg # of iterations =  3.7

     negative rho (up, down):  1.042E+01 1.038E+01


     ----------------------------------------------------------------

     Non-local correlation energy =             18.782370961770788

     ----------------------------------------------------------------


     total cpu time spent up to now is    47160.9 secs

     total energy              =  -24447.83481796 Ry
     estimated scf accuracy    <       0.22523922 Ry

     total magnetization       =     5.13 Bohr mag/cell
     absolute magnetization    =     5.47 Bohr mag/cell

     iteration # 11     ecut=    60.00 Ry     beta= 0.10
     CG style diagonalization

---- Real-time Memory Report at c_bands before calling an iterative solver
             0 MiB given to the printing process from OS
             0 MiB allocation reported by mallinfo(arena+hblkhd)
         95378 MiB available memory on the node where the printing process lives
------------------
     c_bands:  5 eigenvalues not converged
     c_bands:  1 eigenvalues not converged
     ethr =  1.19E-05,  avg # of iterations =  8.3

     negative rho (up, down):  1.046E+01 1.043E+01


     ----------------------------------------------------------------

     Non-local correlation energy =             18.751242125972929

     ----------------------------------------------------------------


     total cpu time spent up to now is    52645.5 secs

     total energy              =  -24447.79916944 Ry
     estimated scf accuracy    <       0.16734085 Ry

     total magnetization       =     4.40 Bohr mag/cell
     absolute magnetization    =     4.71 Bohr mag/cell

     iteration # 12     ecut=    60.00 Ry     beta= 0.10
     CG style diagonalization

---- Real-time Memory Report at c_bands before calling an iterative solver
             0 MiB given to the printing process from OS
             0 MiB allocation reported by mallinfo(arena+hblkhd)
         95437 MiB available memory on the node where the printing process lives
------------------
     c_bands:  2 eigenvalues not converged
     ethr =  9.02E-06,  avg # of iterations =  3.6

     negative rho (up, down):  1.043E+01 1.040E+01


     ----------------------------------------------------------------

     Non-local correlation energy =             18.751814277758715

     ----------------------------------------------------------------


     total cpu time spent up to now is    55104.0 secs

     total energy              =  -24447.82044186 Ry
     estimated scf accuracy    <       0.06591731 Ry

     total magnetization       =     3.67 Bohr mag/cell
     absolute magnetization    =     4.00 Bohr mag/cell

     iteration # 13     ecut=    60.00 Ry     beta= 0.10
     CG style diagonalization

---- Real-time Memory Report at c_bands before calling an iterative solver
             0 MiB given to the printing process from OS
             0 MiB allocation reported by mallinfo(arena+hblkhd)
         95462 MiB available memory on the node where the printing process lives
------------------
     ethr =  3.55E-06,  avg # of iterations =  3.1

     negative rho (up, down):  1.044E+01 1.041E+01


     ----------------------------------------------------------------

     Non-local correlation energy =             18.754422140965278

     ----------------------------------------------------------------


     total cpu time spent up to now is    57142.4 secs

     total energy              =  -24447.81469639 Ry
     estimated scf accuracy    <       0.05049069 Ry

     total magnetization       =     3.68 Bohr mag/cell
     absolute magnetization    =     4.01 Bohr mag/cell

     iteration # 14     ecut=    60.00 Ry     beta= 0.10
     CG style diagonalization

---- Real-time Memory Report at c_bands before calling an iterative solver
             0 MiB given to the printing process from OS
             0 MiB allocation reported by mallinfo(arena+hblkhd)
         95469 MiB available memory on the node where the printing process lives
------------------
     ethr =  2.72E-06,  avg # of iterations =  3.2

     negative rho (up, down):  1.041E+01 1.038E+01


     ----------------------------------------------------------------

     Non-local correlation energy =             18.754277838606257

     ----------------------------------------------------------------


     total cpu time spent up to now is    59262.9 secs

     total energy              =  -24447.81637101 Ry
     estimated scf accuracy    <       0.01596047 Ry

     total magnetization       =     3.24 Bohr mag/cell
     absolute magnetization    =     3.53 Bohr mag/cell

     iteration # 15     ecut=    60.00 Ry     beta= 0.10
     CG style diagonalization

---- Real-time Memory Report at c_bands before calling an iterative solver
             0 MiB given to the printing process from OS
             0 MiB allocation reported by mallinfo(arena+hblkhd)
         95503 MiB available memory on the node where the printing process lives
------------------
     c_bands:  1 eigenvalues not converged
     ethr =  8.60E-07,  avg # of iterations =  3.2

     negative rho (up, down):  1.039E+01 1.036E+01


     ----------------------------------------------------------------

     Non-local correlation energy =             18.752989566271761

     ----------------------------------------------------------------


     total cpu time spent up to now is    61371.6 secs

     total energy              =  -24447.81707197 Ry
     estimated scf accuracy    <       0.01459231 Ry

     total magnetization       =     3.32 Bohr mag/cell
     absolute magnetization    =     3.61 Bohr mag/cell

     iteration # 16     ecut=    60.00 Ry     beta= 0.10
     CG style diagonalization

---- Real-time Memory Report at c_bands before calling an iterative solver
             0 MiB given to the printing process from OS
             0 MiB allocation reported by mallinfo(arena+hblkhd)
         95514 MiB available memory on the node where the printing process lives
------------------
     c_bands:  1 eigenvalues not converged
     c_bands:  2 eigenvalues not converged
     ethr =  7.86E-07,  avg # of iterations =  3.3

     negative rho (up, down):  1.040E+01 1.037E+01


     ----------------------------------------------------------------

     Non-local correlation energy =             18.762052518173448

     ----------------------------------------------------------------


     total cpu time spent up to now is    63608.3 secs

     total energy              =  -24447.81113902 Ry
     estimated scf accuracy    <       0.02004775 Ry

     total magnetization       =     3.29 Bohr mag/cell
     absolute magnetization    =     3.57 Bohr mag/cell

     iteration # 17     ecut=    60.00 Ry     beta= 0.10
     CG style diagonalization

---- Real-time Memory Report at c_bands before calling an iterative solver
             0 MiB given to the printing process from OS
             0 MiB allocation reported by mallinfo(arena+hblkhd)
         95528 MiB available memory on the node where the printing process lives
------------------
     c_bands:  1 eigenvalues not converged
     ethr =  7.86E-07,  avg # of iterations =  3.1

     negative rho (up, down):  1.039E+01 1.037E+01


     ----------------------------------------------------------------

     Non-local correlation energy =             18.767477636076233

     ----------------------------------------------------------------


     total cpu time spent up to now is    65582.2 secs

     total energy              =  -24447.80960030 Ry
     estimated scf accuracy    <       0.00811208 Ry

     total magnetization       =     3.06 Bohr mag/cell
     absolute magnetization    =     3.31 Bohr mag/cell

     iteration # 18     ecut=    60.00 Ry     beta= 0.10
     CG style diagonalization

---- Real-time Memory Report at c_bands before calling an iterative solver
             0 MiB given to the printing process from OS
             0 MiB allocation reported by mallinfo(arena+hblkhd)
         95523 MiB available memory on the node where the printing process lives
------------------
     c_bands:  2 eigenvalues not converged
     ethr =  4.37E-07,  avg # of iterations =  3.4

     negative rho (up, down):  1.037E+01 1.035E+01


     ----------------------------------------------------------------

     Non-local correlation energy =             18.764852171732400

     ----------------------------------------------------------------


     total cpu time spent up to now is    67851.2 secs

     total energy              =  -24447.80959815 Ry
     estimated scf accuracy    <       0.00515300 Ry

     total magnetization       =     2.52 Bohr mag/cell
     absolute magnetization    =     2.70 Bohr mag/cell

     iteration # 19     ecut=    60.00 Ry     beta= 0.10
     CG style diagonalization

---- Real-time Memory Report at c_bands before calling an iterative solver
             0 MiB given to the printing process from OS
             0 MiB allocation reported by mallinfo(arena+hblkhd)
         95535 MiB available memory on the node where the printing process lives
------------------
     c_bands:  2 eigenvalues not converged
     ethr =  2.78E-07,  avg # of iterations =  3.2

     negative rho (up, down):  1.034E+01 1.032E+01


     ----------------------------------------------------------------

     Non-local correlation energy =             18.769387585847824

     ----------------------------------------------------------------


     total cpu time spent up to now is    69968.6 secs

     total energy              =  -24447.80731069 Ry
     estimated scf accuracy    <       0.00358910 Ry

     total magnetization       =     2.29 Bohr mag/cell
     absolute magnetization    =     2.48 Bohr mag/cell

     iteration # 20     ecut=    60.00 Ry     beta= 0.10
     CG style diagonalization

---- Real-time Memory Report at c_bands before calling an iterative solver
             0 MiB given to the printing process from OS
             0 MiB allocation reported by mallinfo(arena+hblkhd)
         95554 MiB available memory on the node where the printing process lives
------------------
     c_bands:  4 eigenvalues not converged
     c_bands:  2 eigenvalues not converged
     ethr =  1.93E-07,  avg # of iterations =  3.3

     negative rho (up, down):  1.032E+01 1.030E+01


     ----------------------------------------------------------------

     Non-local correlation energy =             18.768647095089030

     ----------------------------------------------------------------


     total cpu time spent up to now is    72151.4 secs

     total energy              =  -24447.80820995 Ry
     estimated scf accuracy    <       0.00237742 Ry

     total magnetization       =     1.79 Bohr mag/cell
     absolute magnetization    =     1.93 Bohr mag/cell

     iteration # 21     ecut=    60.00 Ry     beta= 0.10
     CG style diagonalization

---- Real-time Memory Report at c_bands before calling an iterative solver
             0 MiB given to the printing process from OS
             0 MiB allocation reported by mallinfo(arena+hblkhd)
         95560 MiB available memory on the node where the printing process lives
------------------
     c_bands:  3 eigenvalues not converged
     c_bands:  1 eigenvalues not converged
     ethr =  1.28E-07,  avg # of iterations =  3.2

     negative rho (up, down):  1.028E+01 1.027E+01


     ----------------------------------------------------------------

     Non-local correlation energy =             18.765820944568326

     ----------------------------------------------------------------


     total cpu time spent up to now is    74255.6 secs

     total energy              =  -24447.80778279 Ry
     estimated scf accuracy    <       0.00182615 Ry

     total magnetization       =     1.74 Bohr mag/cell
     absolute magnetization    =     1.88 Bohr mag/cell

     iteration # 22     ecut=    60.00 Ry     beta= 0.10
     CG style diagonalization

---- Real-time Memory Report at c_bands before calling an iterative solver
             0 MiB given to the printing process from OS
             0 MiB allocation reported by mallinfo(arena+hblkhd)
         95571 MiB available memory on the node where the printing process lives
------------------
     c_bands:  4 eigenvalues not converged
     c_bands:  4 eigenvalues not converged
     ethr =  9.84E-08,  avg # of iterations =  3.7

     negative rho (up, down):  1.030E+01 1.029E+01


     ----------------------------------------------------------------

     Non-local correlation energy =             18.769398413627471

     ----------------------------------------------------------------


     total cpu time spent up to now is    76852.4 secs

     total energy              =  -24447.80736794 Ry
     estimated scf accuracy    <       0.00267006 Ry

     total magnetization       =     1.30 Bohr mag/cell
     absolute magnetization    =     1.40 Bohr mag/cell

     iteration # 23     ecut=    60.00 Ry     beta= 0.10
     CG style diagonalization

---- Real-time Memory Report at c_bands before calling an iterative solver
             0 MiB given to the printing process from OS
             0 MiB allocation reported by mallinfo(arena+hblkhd)
         95572 MiB available memory on the node where the printing process lives
------------------
     c_bands:  3 eigenvalues not converged
     c_bands:  1 eigenvalues not converged
     ethr =  9.84E-08,  avg # of iterations =  3.6

     negative rho (up, down):  1.028E+01 1.027E+01


     ----------------------------------------------------------------

     Non-local correlation energy =             18.769429853512552

     ----------------------------------------------------------------


     total cpu time spent up to now is    79357.9 secs

     total energy              =  -24447.80757532 Ry
     estimated scf accuracy    <       0.00109533 Ry

     total magnetization       =     1.23 Bohr mag/cell
     absolute magnetization    =     1.32 Bohr mag/cell

     iteration # 24     ecut=    60.00 Ry     beta= 0.10
     CG style diagonalization

---- Real-time Memory Report at c_bands before calling an iterative solver
             0 MiB given to the printing process from OS
             0 MiB allocation reported by mallinfo(arena+hblkhd)
         95563 MiB available memory on the node where the printing process lives
------------------
     c_bands:  2 eigenvalues not converged
     c_bands:  2 eigenvalues not converged
     ethr =  5.90E-08,  avg # of iterations =  3.2

     negative rho (up, down):  1.026E+01 1.026E+01


     ----------------------------------------------------------------

     Non-local correlation energy =             18.768840982311325

     ----------------------------------------------------------------


     total cpu time spent up to now is    81433.5 secs

     total energy              =  -24447.80736304 Ry
     estimated scf accuracy    <       0.00064259 Ry

     total magnetization       =     0.84 Bohr mag/cell
     absolute magnetization    =     0.91 Bohr mag/cell

     iteration # 25     ecut=    60.00 Ry     beta= 0.10
     CG style diagonalization

---- Real-time Memory Report at c_bands before calling an iterative solver
             0 MiB given to the printing process from OS
             0 MiB allocation reported by mallinfo(arena+hblkhd)
         95553 MiB available memory on the node where the printing process lives
------------------
     c_bands:  2 eigenvalues not converged
     ethr =  3.46E-08,  avg # of iterations =  3.1

     negative rho (up, down):  1.024E+01 1.024E+01


     ----------------------------------------------------------------

     Non-local correlation energy =             18.770257236829281

     ----------------------------------------------------------------


     total cpu time spent up to now is    83423.5 secs

     total energy              =  -24447.80703866 Ry
     estimated scf accuracy    <       0.00042912 Ry

     total magnetization       =     0.65 Bohr mag/cell
     absolute magnetization    =     0.71 Bohr mag/cell

     iteration # 26     ecut=    60.00 Ry     beta= 0.10
     CG style diagonalization

---- Real-time Memory Report at c_bands before calling an iterative solver
             0 MiB given to the printing process from OS
             0 MiB allocation reported by mallinfo(arena+hblkhd)
         95557 MiB available memory on the node where the printing process lives
------------------
     c_bands:  1 eigenvalues not converged
     ethr =  2.31E-08,  avg # of iterations =  3.2

     negative rho (up, down):  1.022E+01 1.022E+01


     ----------------------------------------------------------------

     Non-local correlation energy =             18.769020013547159

     ----------------------------------------------------------------


     total cpu time spent up to now is    85536.4 secs

     total energy              =  -24447.80669674 Ry
     estimated scf accuracy    <       0.00025372 Ry

     total magnetization       =     0.41 Bohr mag/cell
     absolute magnetization    =     0.45 Bohr mag/cell

     iteration # 27     ecut=    60.00 Ry     beta= 0.10
     CG style diagonalization

---- Real-time Memory Report at c_bands before calling an iterative solver
             0 MiB given to the printing process from OS
             0 MiB allocation reported by mallinfo(arena+hblkhd)
         95562 MiB available memory on the node where the printing process lives
------------------
     c_bands:  3 eigenvalues not converged
     c_bands:  1 eigenvalues not converged
     ethr =  1.37E-08,  avg # of iterations =  3.8

     negative rho (up, down):  1.021E+01 1.021E+01


     ----------------------------------------------------------------

     Non-local correlation energy =             18.770344823982931

     ----------------------------------------------------------------


     total cpu time spent up to now is    88171.7 secs

     total energy              =  -24447.80713183 Ry
     estimated scf accuracy    <       0.00023329 Ry

     total magnetization       =     0.26 Bohr mag/cell
     absolute magnetization    =     0.28 Bohr mag/cell

     iteration # 28     ecut=    60.00 Ry     beta= 0.10
     CG style diagonalization

---- Real-time Memory Report at c_bands before calling an iterative solver
             0 MiB given to the printing process from OS
             0 MiB allocation reported by mallinfo(arena+hblkhd)
         95550 MiB available memory on the node where the printing process lives
------------------
     c_bands:  1 eigenvalues not converged
     ethr =  1.26E-08,  avg # of iterations =  3.2

     negative rho (up, down):  1.021E+01 1.021E+01


     ----------------------------------------------------------------

     Non-local correlation energy =             18.770881986429742

     ----------------------------------------------------------------


     total cpu time spent up to now is    90230.6 secs

     total energy              =  -24447.80755666 Ry
     estimated scf accuracy    <       0.00006611 Ry

     total magnetization       =     0.19 Bohr mag/cell
     absolute magnetization    =     0.20 Bohr mag/cell

     iteration # 29     ecut=    60.00 Ry     beta= 0.10
     CG style diagonalization

---- Real-time Memory Report at c_bands before calling an iterative solver
             0 MiB given to the printing process from OS
             0 MiB allocation reported by mallinfo(arena+hblkhd)
         95543 MiB available memory on the node where the printing process lives
------------------
     ethr =  3.56E-09,  avg # of iterations =  3.6

     negative rho (up, down):  1.020E+01 1.020E+01


     ----------------------------------------------------------------

     Non-local correlation energy =             18.770600283838505

     ----------------------------------------------------------------


     total cpu time spent up to now is    92709.6 secs

     total energy              =  -24447.80761642 Ry
     estimated scf accuracy    <       0.00007760 Ry

     total magnetization       =     0.13 Bohr mag/cell
     absolute magnetization    =     0.14 Bohr mag/cell

     iteration # 30     ecut=    60.00 Ry     beta= 0.10
     CG style diagonalization

---- Real-time Memory Report at c_bands before calling an iterative solver
             0 MiB given to the printing process from OS
             0 MiB allocation reported by mallinfo(arena+hblkhd)
         95554 MiB available memory on the node where the printing process lives
------------------
     ethr =  3.56E-09,  avg # of iterations =  3.2

     negative rho (up, down):  1.020E+01 1.020E+01


     ----------------------------------------------------------------

     Non-local correlation energy =             18.770540585061983

     ----------------------------------------------------------------


     total cpu time spent up to now is    94761.6 secs

     total energy              =  -24447.80762838 Ry
     estimated scf accuracy    <       0.00002035 Ry

     total magnetization       =     0.09 Bohr mag/cell
     absolute magnetization    =     0.10 Bohr mag/cell

     iteration # 31     ecut=    60.00 Ry     beta= 0.10
     CG style diagonalization

---- Real-time Memory Report at c_bands before calling an iterative solver
             0 MiB given to the printing process from OS
             0 MiB allocation reported by mallinfo(arena+hblkhd)
         95551 MiB available memory on the node where the printing process lives
------------------
     c_bands:  1 eigenvalues not converged
     c_bands:  2 eigenvalues not converged
     ethr =  1.10E-09,  avg # of iterations =  3.5

     negative rho (up, down):  1.020E+01 1.020E+01


     ----------------------------------------------------------------

     Non-local correlation energy =             18.770701045565875

     ----------------------------------------------------------------


     total cpu time spent up to now is    97167.1 secs

     total energy              =  -24447.80763312 Ry
     estimated scf accuracy    <       0.00000766 Ry

     total magnetization       =     0.06 Bohr mag/cell
     absolute magnetization    =     0.07 Bohr mag/cell

     iteration # 32     ecut=    60.00 Ry     beta= 0.10
     CG style diagonalization

---- Real-time Memory Report at c_bands before calling an iterative solver
             0 MiB given to the printing process from OS
             0 MiB allocation reported by mallinfo(arena+hblkhd)
         95539 MiB available memory on the node where the printing process lives
------------------
     ethr =  4.13E-10,  avg # of iterations =  3.0

     negative rho (up, down):  1.020E+01 1.020E+01


     ----------------------------------------------------------------

     Non-local correlation energy =             18.770643023719629

     ----------------------------------------------------------------


     total cpu time spent up to now is    99077.3 secs

     total energy              =  -24447.80772647 Ry
     estimated scf accuracy    <       0.00000479 Ry

     total magnetization       =     0.05 Bohr mag/cell
     absolute magnetization    =     0.06 Bohr mag/cell

     iteration # 33     ecut=    60.00 Ry     beta= 0.10
     CG style diagonalization

---- Real-time Memory Report at c_bands before calling an iterative solver
             0 MiB given to the printing process from OS
             0 MiB allocation reported by mallinfo(arena+hblkhd)
         95559 MiB available memory on the node where the printing process lives
------------------
     ethr =  2.58E-10,  avg # of iterations =  3.1

     negative rho (up, down):  1.020E+01 1.020E+01


     ----------------------------------------------------------------

     Non-local correlation energy =             18.770682705118887

     ----------------------------------------------------------------


     total cpu time spent up to now is   101029.8 secs

     total energy              =  -24447.80774686 Ry
     estimated scf accuracy    <       0.00000175 Ry

     total magnetization       =     0.05 Bohr mag/cell
     absolute magnetization    =     0.05 Bohr mag/cell

     iteration # 34     ecut=    60.00 Ry     beta= 0.10
     CG style diagonalization

---- Real-time Memory Report at c_bands before calling an iterative solver
             0 MiB given to the printing process from OS
             0 MiB allocation reported by mallinfo(arena+hblkhd)
         95551 MiB available memory on the node where the printing process lives
------------------
     ethr =  9.44E-11,  avg # of iterations =  3.0

     negative rho (up, down):  1.020E+01 1.020E+01


     ----------------------------------------------------------------

     Non-local correlation energy =             18.770708210186349

     ----------------------------------------------------------------


     total cpu time spent up to now is   102935.1 secs

     total energy              =  -24447.80776652 Ry
     estimated scf accuracy    <       0.00000119 Ry

     total magnetization       =     0.05 Bohr mag/cell
     absolute magnetization    =     0.05 Bohr mag/cell

[...]
     atom   13 type  1   force =     0.00000854   -0.00000053    0.00000320
     atom   14 type  1   force =     0.00001298   -0.00000796   -0.00001319
     atom   15 type  1   force =     0.00003718   -0.00000157   -0.00002690
     atom   16 type  1   force =    -0.00000353   -0.00000061   -0.00000881
     atom   17 type  1   force =     0.00001013    0.00000633    0.00001176
     atom   18 type  1   force =     0.00001749   -0.00000357    0.00000318
     atom   19 type  1   force =     0.00000638    0.00000359    0.00000037
     atom   20 type  1   force =     0.00003581   -0.00002884    0.00000104
     atom   21 type  1   force =     0.00001003   -0.00001207   -0.00000676
     atom   22 type  1   force =     0.00001856   -0.00000353   -0.00000263
     atom   23 type  1   force =     0.00001159    0.00000630   -0.00001206
     atom   24 type  1   force =     0.00001081   -0.00001279    0.00000777
     atom   25 type  1   force =    -0.00000572   -0.00000680    0.00000039
     atom   26 type  1   force =    -0.00000797    0.00001146    0.00001340
     atom   27 type  1   force =    -0.00000054    0.00000725   -0.00000327
     atom   28 type  1   force =    -0.00000055   -0.00000517    0.00000742
     atom   29 type  1   force =     0.00000276    0.00001967    0.00000339
     atom   30 type  1   force =     0.00002721    0.00003755    0.00000085
     atom   31 type  1   force =    -0.00000065    0.00002197    0.00000036
     atom   32 type  1   force =    -0.00000143    0.00003629    0.00002891
     atom   33 type  1   force =     0.00000276    0.00002048   -0.00000297
     atom   34 type  1   force =    -0.00000787    0.00001299   -0.00001359
     atom   35 type  1   force =    -0.00000053    0.00000891    0.00000281
     atom   36 type  1   force =    -0.00000132    0.00003738   -0.00002756
     atom   37 type  1   force =    -0.00000044   -0.00000335   -0.00000883
     atom   38 type  1   force =     0.00000166    0.00000151    0.00001871
     atom   39 type  1   force =     0.00002531   -0.00000176    0.00003769
     atom   40 type  1   force =    -0.00000138    0.00002501    0.00003803
     atom   41 type  1   force =    -0.00000057   -0.00000081    0.00001968
     atom   42 type  1   force =     0.00003516    0.00003429    0.00003795
     atom   43 type  1   force =     0.00004948   -0.00000255    0.00000156
     atom   44 type  1   force =    -0.00000206    0.00004848    0.00000145
     atom   45 type  1   force =    -0.00000221   -0.00000277    0.00005236
     atom   46 type  1   force =     0.00003565    0.00003496   -0.00003609
     atom   47 type  1   force =     0.00002639   -0.00000167   -0.00003756
     atom   48 type  1   force =    -0.00000142    0.00002617   -0.00003780
     atom   49 type  1   force =    -0.00000225   -0.00000264   -0.00004999
     atom   50 type  1   force =     0.00000246    0.00000238   -0.00002019
     atom   51 type  1   force =    -0.00000067   -0.00000078   -0.00002106
     atom   52 type  1   force =     0.00000165   -0.00000247    0.00001695
     atom   53 type  1   force =    -0.00000798   -0.00001103    0.00001067
     atom   54 type  1   force =    -0.00000147   -0.00002753    0.00003590
     atom   55 type  1   force =    -0.00000051    0.00000578    0.00000474
     atom   56 type  1   force =     0.00003432   -0.00003774    0.00003733
     atom   57 type  1   force =     0.00002534   -0.00003795    0.00000104
     atom   58 type  1   force =    -0.00000238   -0.00005266    0.00000158
     atom   59 type  1   force =    -0.00000149   -0.00003634    0.00002704
     atom   60 type  1   force =     0.00003474   -0.00003824   -0.00003535
     atom   61 type  1   force =    -0.00000791   -0.00001259   -0.00001090
     atom   62 type  1   force =    -0.00000147   -0.00002854   -0.00003584
     atom   63 type  1   force =    -0.00000142   -0.00003755   -0.00002558
     atom   64 type  1   force =     0.00000246   -0.00000325   -0.00001844
     atom   65 type  1   force =    -0.00000049    0.00000414   -0.00000609
     atom   66 type  1   force =    -0.00000040   -0.00000477   -0.00000614
     atom   67 type  1   force =     0.00000155   -0.00001701    0.00000206
     atom   68 type  1   force =    -0.00000052   -0.00001943    0.00000046
     atom   69 type  1   force =     0.00000150   -0.00001792   -0.00000153
     atom   70 type  1   force =    -0.00000040   -0.00000636    0.00000586
     atom   71 type  1   force =     0.00000646    0.00001049    0.00001229
     atom   72 type  1   force =    -0.00000362    0.00001819    0.00000347
     atom   73 type  1   force =    -0.00002918    0.00003613    0.00000092
     atom   74 type  1   force =     0.00000327    0.00000697    0.00000038
     atom   75 type  1   force =    -0.00001237    0.00001036   -0.00000673
     atom   76 type  1   force =    -0.00000357    0.00001927   -0.00000296
     atom   77 type  1   force =     0.00000650    0.00001202   -0.00001254
     atom   78 type  1   force =    -0.00001313    0.00001107    0.00000773
     atom   79 type  1   force =    -0.00000236    0.00000159    0.00001719
     atom   80 type  1   force =    -0.00002731   -0.00000185    0.00003594
     atom   81 type  1   force =    -0.00001100   -0.00000812    0.00001077
     atom   82 type  1   force =     0.00000575   -0.00000069    0.00000507
     atom   83 type  1   force =    -0.00003789    0.00003368    0.00003749
     atom   84 type  1   force =    -0.00005285   -0.00000292    0.00000154
     atom   85 type  1   force =    -0.00003801    0.00002487    0.00000098
     atom   86 type  1   force =    -0.00003611   -0.00000193    0.00002681
     atom   87 type  1   force =    -0.00003828    0.00003415   -0.00003559
     atom   88 type  1   force =    -0.00002835   -0.00000173   -0.00003589
     atom   89 type  1   force =    -0.00001258   -0.00000811   -0.00001113
     atom   90 type  1   force =    -0.00003724   -0.00000179   -0.00002538
     atom   91 type  1   force =    -0.00000317    0.00000233   -0.00001875
     atom   92 type  1   force =     0.00000408   -0.00000055   -0.00000652
     atom   93 type  1   force =    -0.00000234   -0.00000255    0.00001563
     atom   94 type  1   force =     0.00000665   -0.00000980    0.00000959
     atom   95 type  1   force =    -0.00000966    0.00000642    0.00000943
     atom   96 type  1   force =    -0.00003715   -0.00003715    0.00003651
     atom   97 type  1   force =    -0.00002726   -0.00003590    0.00000107
     atom   98 type  1   force =    -0.00003565   -0.00002723    0.00000110
     atom   99 type  1   force =    -0.00000950   -0.00000950   -0.00000675
     atom  100 type  1   force =    -0.00003753   -0.00003749   -0.00003450
     atom  101 type  1   force =     0.00000664   -0.00001138   -0.00000993
     atom  102 type  1   force =    -0.00001121    0.00000648   -0.00000988
     atom  103 type  1   force =    -0.00001027   -0.00001035    0.00000784
     atom  104 type  1   force =    -0.00000317   -0.00000322   -0.00001710
     atom  105 type  1   force =    -0.00000207   -0.00001541    0.00000210
     atom  106 type  1   force =     0.00000640   -0.00000441    0.00000039
     atom  107 type  1   force =    -0.00000204   -0.00001650   -0.00000153
     atom  108 type  1   force =    -0.00000723   -0.00000534    0.00000033
     atom  109 type  1   force =    -0.00000507   -0.00000060   -0.00000596
     atom  110 type  1   force =    -0.00001715    0.00000152    0.00000207
     atom  111 type  1   force =    -0.00001930   -0.00000079    0.00000047
     atom  112 type  1   force =    -0.00001810    0.00000155   -0.00000157
     atom  113 type  1   force =    -0.00000661   -0.00000056    0.00000554
     atom  114 type  1   force =    -0.00001524   -0.00000227    0.00000217
     atom  115 type  1   force =    -0.00000427    0.00000626    0.00000040
     atom  116 type  1   force =    -0.00001630   -0.00000224   -0.00000158

     Total force =     0.005983     Total SCF correction =     0.000342
     Energy error            =      7.7E-05 Ry
     Gradient error          =      6.4E-04 Ry/Bohr

     bfgs converged in   6 scf cycles and   5 bfgs steps
     (criteria: energy <  1.0E-04 Ry, force <  1.0E-03 Ry/Bohr)

     End of BFGS Geometry Optimization

     Final energy             =  -24447.8088297593 Ry

     File ./out/calc.bfgs deleted, as requested
Begin final coordinates

ATOMIC_POSITIONS (angstrom)
Pt              -5.7905686673       -3.8432452577       -0.0000000000
Pt              -3.8432452577       -5.7905686673        0.0000000000
Pt              -4.0461688763       -4.0461688763       -2.1173888803
Pt              -4.0461688763       -4.0461688763        2.1173888803
Pt              -5.7905686673       -0.0000000000       -3.8432452577
Pt              -4.0461688763       -2.1173888803       -4.0461688763
Pt              -3.8432452577        0.0000000000       -5.7905686673
Pt              -5.8408982393       -1.9504647669       -1.9504647669
Pt              -5.9208910881       -0.0000000000        0.0000000000
Pt              -3.8796956719       -1.9678479333        0.0000000000
Pt              -3.8796956719       -0.0000000000       -1.9678479333
Pt              -5.8408982393       -1.9504647669        1.9504647669
Pt              -5.7905686673        0.0000000000        3.8432452577
Pt              -4.0461688763       -2.1173888803        4.0461688763
Pt              -3.8796956719        0.0000000000        1.9678479333
Pt              -3.8432452577       -0.0000000000        5.7905686673
Pt              -4.0461688763        2.1173888803       -4.0461688763
Pt              -5.8408982393        1.9504647669       -1.9504647669
Pt              -5.7905686673        3.8432452577       -0.0000000000
Pt              -3.8796956719        1.9678479333       -0.0000000000
Pt              -4.0461688763        4.0461688763       -2.1173888803
Pt              -5.8408982393        1.9504647669        1.9504647669
Pt              -4.0461688763        2.1173888803        4.0461688763
Pt              -4.0461688763        4.0461688763        2.1173888803
Pt              -3.8432452577        5.7905686673        0.0000000000
Pt              -2.1173888803       -4.0461688763       -4.0461688763
Pt              -0.0000000000       -5.7905686673       -3.8432452577
Pt              -0.0000000000       -3.8432452577       -5.7905686673
Pt              -1.9504647669       -5.8408982393       -1.9504647669
Pt              -1.9678479333       -3.8796956719       -0.0000000000
Pt               0.0000000000       -5.9208910881       -0.0000000000
Pt              -0.0000000000       -3.8796956719       -1.9678479333
Pt              -1.9504647669       -5.8408982393        1.9504647669
Pt              -2.1173888803       -4.0461688763        4.0461688763
Pt               0.0000000000       -5.7905686673        3.8432452577
Pt               0.0000000000       -3.8796956719        1.9678479333
Pt               0.0000000000       -3.8432452577        5.7905686673
Pt              -1.9504647669       -1.9504647669       -5.8408982393
Pt              -1.9678479333       -0.0000000000       -3.8796956719
Pt               0.0000000000       -1.9678479333       -3.8796956719
Pt              -0.0000000000        0.0000000000       -5.9208910881
Pt              -2.0302079590       -2.0302079590       -2.0302079590
Pt              -1.9624404098       -0.0000000000        0.0000000000
Pt              -0.0000000000       -1.9624404098        0.0000000000
Pt               0.0000000000       -0.0000000000       -1.9624404098
Pt              -2.0302079590       -2.0302079590        2.0302079590
Pt              -1.9678479333        0.0000000000        3.8796956719
Pt               0.0000000000       -1.9678479333        3.8796956719
Pt               0.0000000000        0.0000000000        1.9624404098
Pt              -1.9504647669       -1.9504647669        5.8408982393
Pt               0.0000000000        0.0000000000        5.9208910881
Pt              -1.9504647669        1.9504647669       -5.8408982393
Pt              -2.1173888803        4.0461688763       -4.0461688763
Pt               0.0000000000        1.9678479333       -3.8796956719
Pt              -0.0000000000        3.8432452577       -5.7905686673
Pt              -2.0302079590        2.0302079590       -2.0302079590
Pt              -1.9678479333        3.8796956719        0.0000000000
Pt              -0.0000000000        1.9624404098       -0.0000000000
Pt               0.0000000000        3.8796956719       -1.9678479333
Pt              -2.0302079590        2.0302079590        2.0302079590
Pt              -2.1173888803        4.0461688763        4.0461688763
Pt               0.0000000000        1.9678479333        3.8796956719
Pt               0.0000000000        3.8796956719        1.9678479333
Pt              -1.9504647669        1.9504647669        5.8408982393
Pt              -0.0000000000        3.8432452577        5.7905686673
Pt              -0.0000000000        5.7905686673       -3.8432452577
Pt              -1.9504647669        5.8408982393       -1.9504647669
Pt               0.0000000000        5.9208910881       -0.0000000000
Pt              -1.9504647669        5.8408982393        1.9504647669
Pt              -0.0000000000        5.7905686673        3.8432452577
Pt               2.1173888803       -4.0461688763       -4.0461688763
Pt               1.9504647669       -5.8408982393       -1.9504647669
Pt               1.9678479333       -3.8796956719        0.0000000000
Pt               3.8432452577       -5.7905686673       -0.0000000000
Pt               4.0461688763       -4.0461688763       -2.1173888803
Pt               1.9504647669       -5.8408982393        1.9504647669
Pt               2.1173888803       -4.0461688763        4.0461688763
Pt               4.0461688763       -4.0461688763        2.1173888803
Pt               1.9504647669       -1.9504647669       -5.8408982393
Pt               1.9678479333        0.0000000000       -3.8796956719
Pt               4.0461688763       -2.1173888803       -4.0461688763
Pt               3.8432452577       -0.0000000000       -5.7905686673
Pt               2.0302079590       -2.0302079590       -2.0302079590
Pt               1.9624404098        0.0000000000       -0.0000000000
Pt               3.8796956719       -1.9678479333        0.0000000000
Pt               3.8796956719        0.0000000000       -1.9678479333
Pt               2.0302079590       -2.0302079590        2.0302079590
Pt               1.9678479333       -0.0000000000        3.8796956719
Pt               4.0461688763       -2.1173888803        4.0461688763
Pt               3.8796956719       -0.0000000000        1.9678479333
Pt               1.9504647669       -1.9504647669        5.8408982393
Pt               3.8432452577        0.0000000000        5.7905686673
Pt               1.9504647669        1.9504647669       -5.8408982393
Pt               2.1173888803        4.0461688763       -4.0461688763
Pt               4.0461688763        2.1173888803       -4.0461688763
Pt               2.0302079590        2.0302079590       -2.0302079590
Pt               1.9678479333        3.8796956719       -0.0000000000
Pt               3.8796956719        1.9678479333       -0.0000000000
Pt               4.0461688763        4.0461688763       -2.1173888803
Pt               2.0302079590        2.0302079590        2.0302079590
Pt               2.1173888803        4.0461688763        4.0461688763
Pt               4.0461688763        2.1173888803        4.0461688763
Pt               4.0461688763        4.0461688763        2.1173888803
Pt               1.9504647669        1.9504647669        5.8408982393
Pt               1.9504647669        5.8408982393       -1.9504647669
Pt               3.8432452577        5.7905686673        0.0000000000
Pt               1.9504647669        5.8408982393        1.9504647669
Pt               5.7905686673       -3.8432452577        0.0000000000
Pt               5.7905686673       -0.0000000000       -3.8432452577
Pt               5.8408982393       -1.9504647669       -1.9504647669
Pt               5.9208910881       -0.0000000000        0.0000000000
Pt               5.8408982393       -1.9504647669        1.9504647669
Pt               5.7905686673        0.0000000000        3.8432452577
Pt               5.8408982393        1.9504647669       -1.9504647669
Pt               5.7905686673        3.8432452577        0.0000000000
Pt               5.8408982393        1.9504647669        1.9504647669
End final coordinates



     Writing all to output data dir ./out/calc.save/ :
     XML data file, charge density, pseudopotentials, collected wavefunctions
 
     init_run     :     95.98s CPU    100.77s WALL (       1 calls)
     electrons    : 309325.54s CPU 313303.16s WALL (       6 calls)
     update_pot   :     37.98s CPU     42.27s WALL (       5 calls)
     forces       :    270.29s CPU    286.37s WALL (       6 calls)

     Called by init_run:
     wfcinit      :     73.82s CPU     77.02s WALL (       1 calls)
     wfcinit:atom :      0.29s CPU      0.45s WALL (       2 calls)
     wfcinit:wfcr :     71.72s CPU     74.51s WALL (       2 calls)
     potinit      :      8.73s CPU      9.77s WALL (       1 calls)
     hinit0       :      5.07s CPU      5.15s WALL (       1 calls)

     Called by electrons:
     c_bands      : 304042.88s CPU 307668.84s WALL (     115 calls)
     sum_band     :   3701.38s CPU   3856.93s WALL (     115 calls)
     v_of_rho     :    812.43s CPU    908.77s WALL (     116 calls)
     v_h          :     12.00s CPU     12.96s WALL (     116 calls)
     v_xc         :    841.72s CPU    942.32s WALL (     122 calls)
     newd         :    372.40s CPU    416.09s WALL (     116 calls)
     mix_rho      :    431.32s CPU    468.63s WALL (     115 calls)

     Called by c_bands:
     init_us_2    :    147.53s CPU    149.02s WALL (     474 calls)
     rcgdiagg     : 297399.05s CPU 300780.90s WALL (     254 calls)
     wfcrot       :   6592.24s CPU   6837.26s WALL (     234 calls)

     Called by sum_band:
     sum_band:wei :      0.38s CPU      0.38s WALL (     115 calls)
     sum_band:loo :   3177.92s CPU   3288.74s WALL (     115 calls)
     sum_band:buf :     25.49s CPU     25.78s WALL (     230 calls)
     sum_band:ini :     71.79s CPU     72.42s WALL (     230 calls)
     sum_band:cal :    768.94s CPU    773.49s WALL (     230 calls)
     sum_band:bec :      2.16s CPU      2.17s WALL (     230 calls)
     addusdens    :    500.51s CPU    540.35s WALL (     115 calls)
                                        0.00s GPU  (     115 calls)
     addusd:skk   :     20.11s CPU     35.04s WALL (     115 calls)
                                        0.00s GPU  (     115 calls)

     Called by *cgdiagg:
     h_psi        : 123683.36s CPU 125903.59s WALL (  743619 calls)
     s_psi        :  99242.05s CPU 100001.90s WALL ( 1487004 calls)

     Called by h_psi:
     h_psi:calbec :  52065.59s CPU  52485.85s WALL (  743619 calls)
     vloc_psi     :  20908.80s CPU  22327.18s WALL (  743619 calls)
     add_vuspsi   :  50636.61s CPU  51020.27s WALL (  743619 calls)
     hs_1psi      : 167655.01s CPU 170034.86s WALL (  743385 calls)
     s_1psi       : 100916.41s CPU 101699.04s WALL (  743385 calls)

     General routines
     calbec       : 104036.14s CPU 104869.30s WALL ( 1487282 calls)
     fft          :    483.26s CPU    554.93s WALL (    8276 calls)
     ffts         :    207.10s CPU    241.76s WALL (   13139 calls)
     fftw         :  12353.82s CPU  13759.66s WALL ( 1876112 calls)
     interpolate  :     20.12s CPU     23.01s WALL (     232 calls)
 
     Parallel routines
 
     PWSCF        :   3d14h 2m CPU   3d15h12m WALL

 
   This run was terminated on:   2: 1:37  10May2025            

=------------------------------------------------------------------------------=
   JOB DONE.
=------------------------------------------------------------------------------=
