
     Program PWSCF v.7.3.1 starts on 14May2025 at 16:30:51 

     This program is part of the open-source Quantum ESPRESSO suite
     for quantum simulation of materials; please cite
         "P. Giannozzi et al., J. Phys.:Condens. Matter 21 395502 (2009);
         "P. Giannozzi et al., J. Phys.:Condens. Matter 29 465901 (2017);
         "P. Giannozzi et al., J. Chem. Phys. 152 154105 (2020);
          URL http://www.quantum-espresso.org", 
     in publications or presentations arising from this work. More details at
     http://www.quantum-espresso.org/quote

     Parallel version (MPI), running on    36 processors

     MPI processes distributed on     1 nodes
     164903 MiB available memory on the printing compute node when the environment starts
 
     Reading input from espresso.pwi
Warning: card   &CELL ignored
Warning: card      CELL_DOFREE = 'IBRAV' ignored
Warning: card / ignored

     Current dimensions of program PWSCF are:
     Max number of different atomic species (ntypx) = 10
     Max number of k-points (npk) =  40000
     Max angular momentum in pseudopotentials (lmaxx) =  4
     Message from routine iosys:
     restart disabled: needed files not found

     IMPORTANT: XC functional enforced from input :
     Exchange-correlation= RVV10
                           (   1   4  13   4  26   0   0)
     Any further DFT definition will be discarded
     Please, verify this is what you really want


     Atomic positions and unit cell read from directory:
     ./out/calc.save/
     Message from routine qexsd_readschema :
     xml data file ./out/calc.save/data-file-schema.xml not found
     Nothing found: using input atomic positions and unit cell


     gamma-point specific algorithms are used
 
     R & G space division:  proc/nbgrp/npool/nimage =      36
     Subspace diagonalization in iterative solution of the eigenvalue problem:
     one sub-group per band group will be used
     scalapack distributed-memory algorithm (size of sub-group:  6*  6 procs)

 
     Parallelization info
     --------------------
     sticks:   dense  smooth     PW     G-vecs:    dense   smooth      PW
     Min        2366    1183    295               520102   183878   22972
     Max        2368    1188    298               520116   183884   22980
     Sum       85225   42641  10669             18723953  6619737  827137
 
     Using Slab Decomposition
 

     Title: 
     calc                                                                       


     bravais-lattice index     =            0
     lattice parameter (alat)  =      47.2432  a.u.
     unit-cell volume          =  105442.7265 (a.u.)^3
     number of atoms/cell      =          117
     number of atomic types    =            2
     number of electrons       =      1857.00
     number of Kohn-Sham states=         1115
     kinetic-energy cutoff     =      60.0000  Ry
     charge density cutoff     =     480.0000  Ry
     scf convergence threshold =      1.0E-06
     mixing beta               =       0.1000
     number of iterations used =            8  local-TF  mixing
     energy convergence thresh.=      1.0E-04
     force convergence thresh. =      1.0E-03
     Exchange-correlation= RVV10
                           (   1   4  13   4  26   0   0)
     nstep                     =        10000


     celldm(1)=  47.243153  celldm(2)=   0.000000  celldm(3)=   0.000000
     celldm(4)=   0.000000  celldm(5)=   0.000000  celldm(6)=   0.000000

     crystal axes: (cart. coord. in units of alat)
               a(1) = (   1.000000   0.000000   0.000000 )  
               a(2) = (   0.000000   1.000000   0.000000 )  
               a(3) = (   0.000000   0.000000   1.000000 )  

     reciprocal axes: (cart. coord. in units 2 pi/alat)
               b(1) = (  1.000000  0.000000  0.000000 )  
               b(2) = (  0.000000  1.000000  0.000000 )  
               b(3) = (  0.000000  0.000000  1.000000 )  


     PseudoPot. # 1 for Pt read from file:
     /home/james/work/espresso/SSSP_1.3.0_PBE_efficiency/pt_pbe_v1.4.uspp.F.UPF
     MD5 check sum: f09d6de1a584b5a045c4fc126da2d0c4
     Pseudo is Ultrasoft + core correction, Zval = 16.0
     Generated by new atomic code, or converted to UPF format
     Using radial grid of  985 points,  6 beta functions with: 
                l(1) =   0
                l(2) =   0
                l(3) =   1
                l(4) =   1
                l(5) =   2
                l(6) =   2
     Q(r) pseudized with  8 coefficients,  rinner =    1.300   1.300   1.300
                                                       1.300   1.300

     PseudoPot. # 2 for H  read from file:
     /home/james/work/espresso/SSSP_1.3.0_PBE_efficiency/H.pbe-rrkjus_psl.1.0.0.UPF
     MD5 check sum: f52b6d4d1c606e5624b1dc7b2218f220
     Pseudo is Ultrasoft, Zval =  1.0
     Generated using "atomic" code by A. Dal Corso  v.5.1
     Using radial grid of  929 points,  2 beta functions with: 
                l(1) =   0
                l(2) =   0
     Q(r) pseudized with 0 coefficients 


     atomic species   valence    mass     pseudopotential
     Pt               16.00   195.08400     Pt( 1.00)
     H                 1.00     1.00800     H ( 1.00)

     Starting magnetic structure 
     atomic species   magnetization
     Pt              0.010
     H               0.020

     No symmetry found


                                    s                        frac. trans.

      isym =  1     identity                                     

 cryst.   s( 1) = (     1          0          0      )
                  (     0          1          0      )
                  (     0          0          1      )

 cart.    s( 1) = (  1.0000000  0.0000000  0.0000000 )
                  (  0.0000000  1.0000000  0.0000000 )
                  (  0.0000000  0.0000000  1.0000000 )


   Cartesian axes

     site n.     atom                  positions (alat units)
         1        Pt     tau(   1) = (  -0.2317675  -0.1538076   0.0000000  )
         2        Pt     tau(   2) = (  -0.1538076  -0.2317675   0.0000000  )
         3        Pt     tau(   3) = (  -0.1617552  -0.1617552  -0.0847262  )
         4        Pt     tau(   4) = (  -0.1617552  -0.1617552   0.0847262  )
         5        Pt     tau(   5) = (  -0.2317675   0.0000000  -0.1538076  )
         6        Pt     tau(   6) = (  -0.1617552  -0.0847262  -0.1617552  )
         7        Pt     tau(   7) = (  -0.1538076   0.0000000  -0.2317675  )
         8        Pt     tau(   8) = (  -0.2338884  -0.0780549  -0.0780549  )
         9        Pt     tau(   9) = (  -0.2370085   0.0000000   0.0000000  )
        10        Pt     tau(  10) = (  -0.1554443  -0.0788784   0.0000000  )
        11        Pt     tau(  11) = (  -0.1554443   0.0000000  -0.0788784  )
        12        Pt     tau(  12) = (  -0.2338884  -0.0780549   0.0780549  )
        13        Pt     tau(  13) = (  -0.2317675   0.0000000   0.1538076  )
        14        Pt     tau(  14) = (  -0.1617552  -0.0847262   0.1617552  )
        15        Pt     tau(  15) = (  -0.1554443   0.0000000   0.0788784  )
        16        Pt     tau(  16) = (  -0.1538076   0.0000000   0.2317675  )
        17        Pt     tau(  17) = (  -0.1617552   0.0847262  -0.1617552  )
        18        Pt     tau(  18) = (  -0.2338884   0.0780549  -0.0780549  )
        19        Pt     tau(  19) = (  -0.2317675   0.1538076   0.0000000  )
        20        Pt     tau(  20) = (  -0.1554443   0.0788784   0.0000000  )
        21        Pt     tau(  21) = (  -0.1617552   0.1617552  -0.0847262  )
        22        Pt     tau(  22) = (  -0.2338884   0.0780549   0.0780549  )
        23        Pt     tau(  23) = (  -0.1617552   0.0847262   0.1617552  )
        24        Pt     tau(  24) = (  -0.1617552   0.1617552   0.0847262  )
        25        Pt     tau(  25) = (  -0.1538076   0.2317675   0.0000000  )
        26        Pt     tau(  26) = (  -0.0847262  -0.1617552  -0.1617552  )
        27        Pt     tau(  27) = (   0.0000000  -0.2317675  -0.1538076  )
        28        Pt     tau(  28) = (   0.0000000  -0.1538076  -0.2317675  )
        29        Pt     tau(  29) = (  -0.0780549  -0.2338884  -0.0780549  )
        30        Pt     tau(  30) = (  -0.0788784  -0.1554443   0.0000000  )
        31        Pt     tau(  31) = (   0.0000000  -0.2370085   0.0000000  )
        32        Pt     tau(  32) = (   0.0000000  -0.1554443  -0.0788784  )
        33        Pt     tau(  33) = (  -0.0780549  -0.2338884   0.0780549  )
        34        Pt     tau(  34) = (  -0.0847262  -0.1617552   0.1617552  )
        35        Pt     tau(  35) = (   0.0000000  -0.2317675   0.1538076  )
        36        Pt     tau(  36) = (   0.0000000  -0.1554443   0.0788784  )
        37        Pt     tau(  37) = (   0.0000000  -0.1538076   0.2317675  )
        38        Pt     tau(  38) = (  -0.0780549  -0.0780549  -0.2338884  )
        39        Pt     tau(  39) = (  -0.0788784   0.0000000  -0.1554443  )
        40        Pt     tau(  40) = (   0.0000000  -0.0788784  -0.1554443  )
        41        Pt     tau(  41) = (   0.0000000   0.0000000  -0.2370085  )
        42        Pt     tau(  42) = (  -0.0808740  -0.0808740  -0.0808740  )
        43        Pt     tau(  43) = (  -0.0786873   0.0000000   0.0000000  )
        44        Pt     tau(  44) = (   0.0000000  -0.0786873   0.0000000  )
        45        Pt     tau(  45) = (   0.0000000   0.0000000  -0.0786873  )
        46        Pt     tau(  46) = (  -0.0808740  -0.0808740   0.0808740  )
        47        Pt     tau(  47) = (  -0.0788784   0.0000000   0.1554443  )
        48        Pt     tau(  48) = (   0.0000000  -0.0788784   0.1554443  )
        49        Pt     tau(  49) = (   0.0000000   0.0000000   0.0786873  )
        50        Pt     tau(  50) = (  -0.0780549  -0.0780549   0.2338884  )
        51        Pt     tau(  51) = (   0.0000000   0.0000000   0.2370085  )
        52        Pt     tau(  52) = (  -0.0780549   0.0780549  -0.2338884  )
        53        Pt     tau(  53) = (  -0.0847262   0.1617552  -0.1617552  )
        54        Pt     tau(  54) = (   0.0000000   0.0788784  -0.1554443  )
        55        Pt     tau(  55) = (   0.0000000   0.1538076  -0.2317675  )
        56        Pt     tau(  56) = (  -0.0808740   0.0808740  -0.0808740  )
        57        Pt     tau(  57) = (  -0.0788784   0.1554443   0.0000000  )
        58        Pt     tau(  58) = (   0.0000000   0.0786873   0.0000000  )
        59        Pt     tau(  59) = (   0.0000000   0.1554443  -0.0788784  )
        60        Pt     tau(  60) = (  -0.0808740   0.0808740   0.0808740  )
        61        Pt     tau(  61) = (  -0.0847262   0.1617552   0.1617552  )
        62        Pt     tau(  62) = (   0.0000000   0.0788784   0.1554443  )
        63        Pt     tau(  63) = (   0.0000000   0.1554443   0.0788784  )
        64        Pt     tau(  64) = (  -0.0780549   0.0780549   0.2338884  )
        65        Pt     tau(  65) = (   0.0000000   0.1538076   0.2317675  )
        66        Pt     tau(  66) = (   0.0000000   0.2317675  -0.1538076  )
        67        Pt     tau(  67) = (  -0.0780549   0.2338884  -0.0780549  )
        68        Pt     tau(  68) = (   0.0000000   0.2370085   0.0000000  )
        69        Pt     tau(  69) = (  -0.0780549   0.2338884   0.0780549  )
        70        Pt     tau(  70) = (   0.0000000   0.2317675   0.1538076  )
        71        Pt     tau(  71) = (   0.0847262  -0.1617552  -0.1617552  )
        72        Pt     tau(  72) = (   0.0780549  -0.2338884  -0.0780549  )
        73        Pt     tau(  73) = (   0.0788784  -0.1554443   0.0000000  )
        74        Pt     tau(  74) = (   0.1538076  -0.2317675   0.0000000  )
        75        Pt     tau(  75) = (   0.1617552  -0.1617552  -0.0847262  )
        76        Pt     tau(  76) = (   0.0780549  -0.2338884   0.0780549  )
        77        Pt     tau(  77) = (   0.0847262  -0.1617552   0.1617552  )
        78        Pt     tau(  78) = (   0.1617552  -0.1617552   0.0847262  )
        79        Pt     tau(  79) = (   0.0780549  -0.0780549  -0.2338884  )
        80        Pt     tau(  80) = (   0.0788784   0.0000000  -0.1554443  )
        81        Pt     tau(  81) = (   0.1617552  -0.0847262  -0.1617552  )
        82        Pt     tau(  82) = (   0.1538076   0.0000000  -0.2317675  )
        83        Pt     tau(  83) = (   0.0808740  -0.0808740  -0.0808740  )
        84        Pt     tau(  84) = (   0.0786873   0.0000000   0.0000000  )
        85        Pt     tau(  85) = (   0.1554443  -0.0788784   0.0000000  )
        86        Pt     tau(  86) = (   0.1554443   0.0000000  -0.0788784  )
        87        Pt     tau(  87) = (   0.0808740  -0.0808740   0.0808740  )
        88        Pt     tau(  88) = (   0.0788784   0.0000000   0.1554443  )
        89        Pt     tau(  89) = (   0.1617552  -0.0847262   0.1617552  )
        90        Pt     tau(  90) = (   0.1554443   0.0000000   0.0788784  )
        91        Pt     tau(  91) = (   0.0780549  -0.0780549   0.2338884  )
        92        Pt     tau(  92) = (   0.1538076   0.0000000   0.2317675  )
        93        Pt     tau(  93) = (   0.0780549   0.0780549  -0.2338884  )
        94        Pt     tau(  94) = (   0.0847262   0.1617552  -0.1617552  )
        95        Pt     tau(  95) = (   0.1617552   0.0847262  -0.1617552  )
        96        Pt     tau(  96) = (   0.0808740   0.0808740  -0.0808740  )
        97        Pt     tau(  97) = (   0.0788784   0.1554443   0.0000000  )
        98        Pt     tau(  98) = (   0.1554443   0.0788784   0.0000000  )
        99        Pt     tau(  99) = (   0.1617552   0.1617552  -0.0847262  )
       100        Pt     tau( 100) = (   0.0808740   0.0808740   0.0808740  )
       101        Pt     tau( 101) = (   0.0847262   0.1617552   0.1617552  )
       102        Pt     tau( 102) = (   0.1617552   0.0847262   0.1617552  )
       103        Pt     tau( 103) = (   0.1617552   0.1617552   0.0847262  )
       104        Pt     tau( 104) = (   0.0780549   0.0780549   0.2338884  )
       105        Pt     tau( 105) = (   0.0780549   0.2338884  -0.0780549  )
       106        Pt     tau( 106) = (   0.1538076   0.2317675   0.0000000  )
       107        Pt     tau( 107) = (   0.0780549   0.2338884   0.0780549  )
       108        Pt     tau( 108) = (   0.2317675  -0.1538076   0.0000000  )
       109        Pt     tau( 109) = (   0.2317675   0.0000000  -0.1538076  )
       110        Pt     tau( 110) = (   0.2338884  -0.0780549  -0.0780549  )
       111        Pt     tau( 111) = (   0.2370085   0.0000000   0.0000000  )
       112        Pt     tau( 112) = (   0.2338884  -0.0780549   0.0780549  )
       113        Pt     tau( 113) = (   0.2317675   0.0000000   0.1538076  )
       114        Pt     tau( 114) = (   0.2338884   0.0780549  -0.0780549  )
       115        Pt     tau( 115) = (   0.2317675   0.1538076   0.0000000  )
       116        Pt     tau( 116) = (   0.2338884   0.0780549   0.0780549  )
       117        H      tau( 117) = (  -0.2441376  -0.1592741  -0.0805498  )

   Crystallographic axes

     site n.     atom                  positions (cryst. coord.)
         1        Pt     tau(   1) = ( -0.2317675 -0.1538076  0.0000000  )
         2        Pt     tau(   2) = ( -0.1538076 -0.2317675  0.0000000  )
         3        Pt     tau(   3) = ( -0.1617552 -0.1617552 -0.0847262  )
         4        Pt     tau(   4) = ( -0.1617552 -0.1617552  0.0847262  )
         5        Pt     tau(   5) = ( -0.2317675  0.0000000 -0.1538076  )
         6        Pt     tau(   6) = ( -0.1617552 -0.0847262 -0.1617552  )
         7        Pt     tau(   7) = ( -0.1538076  0.0000000 -0.2317675  )
         8        Pt     tau(   8) = ( -0.2338884 -0.0780549 -0.0780549  )
         9        Pt     tau(   9) = ( -0.2370085  0.0000000  0.0000000  )
        10        Pt     tau(  10) = ( -0.1554443 -0.0788784  0.0000000  )
        11        Pt     tau(  11) = ( -0.1554443  0.0000000 -0.0788784  )
        12        Pt     tau(  12) = ( -0.2338884 -0.0780549  0.0780549  )
        13        Pt     tau(  13) = ( -0.2317675  0.0000000  0.1538076  )
        14        Pt     tau(  14) = ( -0.1617552 -0.0847262  0.1617552  )
        15        Pt     tau(  15) = ( -0.1554443  0.0000000  0.0788784  )
        16        Pt     tau(  16) = ( -0.1538076  0.0000000  0.2317675  )
        17        Pt     tau(  17) = ( -0.1617552  0.0847262 -0.1617552  )
        18        Pt     tau(  18) = ( -0.2338884  0.0780549 -0.0780549  )
        19        Pt     tau(  19) = ( -0.2317675  0.1538076  0.0000000  )
        20        Pt     tau(  20) = ( -0.1554443  0.0788784  0.0000000  )
        21        Pt     tau(  21) = ( -0.1617552  0.1617552 -0.0847262  )
        22        Pt     tau(  22) = ( -0.2338884  0.0780549  0.0780549  )
        23        Pt     tau(  23) = ( -0.1617552  0.0847262  0.1617552  )
        24        Pt     tau(  24) = ( -0.1617552  0.1617552  0.0847262  )
        25        Pt     tau(  25) = ( -0.1538076  0.2317675  0.0000000  )
        26        Pt     tau(  26) = ( -0.0847262 -0.1617552 -0.1617552  )
        27        Pt     tau(  27) = (  0.0000000 -0.2317675 -0.1538076  )
        28        Pt     tau(  28) = (  0.0000000 -0.1538076 -0.2317675  )
        29        Pt     tau(  29) = ( -0.0780549 -0.2338884 -0.0780549  )
        30        Pt     tau(  30) = ( -0.0788784 -0.1554443  0.0000000  )
        31        Pt     tau(  31) = (  0.0000000 -0.2370085  0.0000000  )
        32        Pt     tau(  32) = (  0.0000000 -0.1554443 -0.0788784  )
        33        Pt     tau(  33) = ( -0.0780549 -0.2338884  0.0780549  )
        34        Pt     tau(  34) = ( -0.0847262 -0.1617552  0.1617552  )
        35        Pt     tau(  35) = (  0.0000000 -0.2317675  0.1538076  )
        36        Pt     tau(  36) = (  0.0000000 -0.1554443  0.0788784  )
        37        Pt     tau(  37) = (  0.0000000 -0.1538076  0.2317675  )
        38        Pt     tau(  38) = ( -0.0780549 -0.0780549 -0.2338884  )
        39        Pt     tau(  39) = ( -0.0788784  0.0000000 -0.1554443  )
        40        Pt     tau(  40) = (  0.0000000 -0.0788784 -0.1554443  )
        41        Pt     tau(  41) = (  0.0000000  0.0000000 -0.2370085  )
        42        Pt     tau(  42) = ( -0.0808740 -0.0808740 -0.0808740  )
        43        Pt     tau(  43) = ( -0.0786873  0.0000000  0.0000000  )
        44        Pt     tau(  44) = (  0.0000000 -0.0786873  0.0000000  )
        45        Pt     tau(  45) = (  0.0000000  0.0000000 -0.0786873  )
        46        Pt     tau(  46) = ( -0.0808740 -0.0808740  0.0808740  )
        47        Pt     tau(  47) = ( -0.0788784  0.0000000  0.1554443  )
        48        Pt     tau(  48) = (  0.0000000 -0.0788784  0.1554443  )
        49        Pt     tau(  49) = (  0.0000000  0.0000000  0.0786873  )
        50        Pt     tau(  50) = ( -0.0780549 -0.0780549  0.2338884  )
        51        Pt     tau(  51) = (  0.0000000  0.0000000  0.2370085  )
        52        Pt     tau(  52) = ( -0.0780549  0.0780549 -0.2338884  )
        53        Pt     tau(  53) = ( -0.0847262  0.1617552 -0.1617552  )
        54        Pt     tau(  54) = (  0.0000000  0.0788784 -0.1554443  )
        55        Pt     tau(  55) = (  0.0000000  0.1538076 -0.2317675  )
        56        Pt     tau(  56) = ( -0.0808740  0.0808740 -0.0808740  )
        57        Pt     tau(  57) = ( -0.0788784  0.1554443  0.0000000  )
        58        Pt     tau(  58) = (  0.0000000  0.0786873  0.0000000  )
        59        Pt     tau(  59) = (  0.0000000  0.1554443 -0.0788784  )
        60        Pt     tau(  60) = ( -0.0808740  0.0808740  0.0808740  )
        61        Pt     tau(  61) = ( -0.0847262  0.1617552  0.1617552  )
        62        Pt     tau(  62) = (  0.0000000  0.0788784  0.1554443  )
        63        Pt     tau(  63) = (  0.0000000  0.1554443  0.0788784  )
        64        Pt     tau(  64) = ( -0.0780549  0.0780549  0.2338884  )
        65        Pt     tau(  65) = (  0.0000000  0.1538076  0.2317675  )
        66        Pt     tau(  66) = (  0.0000000  0.2317675 -0.1538076  )
        67        Pt     tau(  67) = ( -0.0780549  0.2338884 -0.0780549  )
        68        Pt     tau(  68) = (  0.0000000  0.2370085  0.0000000  )
        69        Pt     tau(  69) = ( -0.0780549  0.2338884  0.0780549  )
        70        Pt     tau(  70) = (  0.0000000  0.2317675  0.1538076  )
        71        Pt     tau(  71) = (  0.0847262 -0.1617552 -0.1617552  )
        72        Pt     tau(  72) = (  0.0780549 -0.2338884 -0.0780549  )
        73        Pt     tau(  73) = (  0.0788784 -0.1554443  0.0000000  )
        74        Pt     tau(  74) = (  0.1538076 -0.2317675  0.0000000  )
        75        Pt     tau(  75) = (  0.1617552 -0.1617552 -0.0847262  )
        76        Pt     tau(  76) = (  0.0780549 -0.2338884  0.0780549  )
        77        Pt     tau(  77) = (  0.0847262 -0.1617552  0.1617552  )
        78        Pt     tau(  78) = (  0.1617552 -0.1617552  0.0847262  )
        79        Pt     tau(  79) = (  0.0780549 -0.0780549 -0.2338884  )
        80        Pt     tau(  80) = (  0.0788784  0.0000000 -0.1554443  )
        81        Pt     tau(  81) = (  0.1617552 -0.0847262 -0.1617552  )
        82        Pt     tau(  82) = (  0.1538076  0.0000000 -0.2317675  )
        83        Pt     tau(  83) = (  0.0808740 -0.0808740 -0.0808740  )
        84        Pt     tau(  84) = (  0.0786873  0.0000000  0.0000000  )
        85        Pt     tau(  85) = (  0.1554443 -0.0788784  0.0000000  )
        86        Pt     tau(  86) = (  0.1554443  0.0000000 -0.0788784  )
        87        Pt     tau(  87) = (  0.0808740 -0.0808740  0.0808740  )
        88        Pt     tau(  88) = (  0.0788784  0.0000000  0.1554443  )
        89        Pt     tau(  89) = (  0.1617552 -0.0847262  0.1617552  )
        90        Pt     tau(  90) = (  0.1554443  0.0000000  0.0788784  )
        91        Pt     tau(  91) = (  0.0780549 -0.0780549  0.2338884  )
        92        Pt     tau(  92) = (  0.1538076  0.0000000  0.2317675  )
        93        Pt     tau(  93) = (  0.0780549  0.0780549 -0.2338884  )
        94        Pt     tau(  94) = (  0.0847262  0.1617552 -0.1617552  )
        95        Pt     tau(  95) = (  0.1617552  0.0847262 -0.1617552  )
        96        Pt     tau(  96) = (  0.0808740  0.0808740 -0.0808740  )
        97        Pt     tau(  97) = (  0.0788784  0.1554443  0.0000000  )
        98        Pt     tau(  98) = (  0.1554443  0.0788784  0.0000000  )
        99        Pt     tau(  99) = (  0.1617552  0.1617552 -0.0847262  )
       100        Pt     tau( 100) = (  0.0808740  0.0808740  0.0808740  )
       101        Pt     tau( 101) = (  0.0847262  0.1617552  0.1617552  )
       102        Pt     tau( 102) = (  0.1617552  0.0847262  0.1617552  )
       103        Pt     tau( 103) = (  0.1617552  0.1617552  0.0847262  )
       104        Pt     tau( 104) = (  0.0780549  0.0780549  0.2338884  )
       105        Pt     tau( 105) = (  0.0780549  0.2338884 -0.0780549  )
       106        Pt     tau( 106) = (  0.1538076  0.2317675  0.0000000  )
       107        Pt     tau( 107) = (  0.0780549  0.2338884  0.0780549  )
       108        Pt     tau( 108) = (  0.2317675 -0.1538076  0.0000000  )
       109        Pt     tau( 109) = (  0.2317675  0.0000000 -0.1538076  )
       110        Pt     tau( 110) = (  0.2338884 -0.0780549 -0.0780549  )
       111        Pt     tau( 111) = (  0.2370085  0.0000000  0.0000000  )
       112        Pt     tau( 112) = (  0.2338884 -0.0780549  0.0780549  )
       113        Pt     tau( 113) = (  0.2317675  0.0000000  0.1538076  )
       114        Pt     tau( 114) = (  0.2338884  0.0780549 -0.0780549  )
       115        Pt     tau( 115) = (  0.2317675  0.1538076  0.0000000  )
       116        Pt     tau( 116) = (  0.2338884  0.0780549  0.0780549  )
       117        H      tau( 117) = ( -0.2441376 -0.1592741 -0.0805498  )

     number of k points=     1  Gaussian smearing, width (Ry)=  0.0100
                       cart. coord. in units 2pi/alat
        k(    1) = (   0.0000000   0.0000000   0.0000000), wk =   1.0000000

                       cryst. coord.
        k(    1) = (   0.0000000   0.0000000   0.0000000), wk =   1.0000000

     Dense  grid:  9361977 G-vectors     FFT dimensions: ( 360, 360, 360)

     Smooth grid:  3309869 G-vectors     FFT dimensions: ( 240, 240, 240)

     Dynamical RAM for                 wfc:     195.54 MB

     Dynamical RAM for     wfc (w. buffer):     586.61 MB

     Dynamical RAM for           str. fact:       7.94 MB

     Dynamical RAM for           local pot:       0.00 MB

     Dynamical RAM for          nlocal pot:     366.52 MB

     Dynamical RAM for                qrad:       3.52 MB

     Dynamical RAM for          rho,v,vnew:      83.14 MB

     Dynamical RAM for               rhoin:      27.71 MB

     Dynamical RAM for            rho*nmix:     126.98 MB

     Dynamical RAM for           G-vectors:      15.58 MB

     Dynamical RAM for          h,s,v(r/c):       0.78 MB

     Dynamical RAM for          <psi|beta>:      17.78 MB

     Dynamical RAM for      wfcinit/wfcrot:     419.54 MB

     Dynamical RAM for           addusdens:    1202.36 MB

     Dynamical RAM for          addusforce:    2115.94 MB

     Estimated static dynamical RAM per process >       1.14 GB

     Estimated max dynamical RAM per process >       3.33 GB

     Estimated total dynamical RAM >     119.71 GB
     Generating pointlists ...
     new r_m :   0.0337 (alat units)  1.5917 (a.u.) for type    1
     new r_m :   0.0337 (alat units)  1.5917 (a.u.) for type    2
     Cannot read rho : file not found

     Initial potential from superposition of free atoms

     starting charge    1798.9987, renormalised to    1857.0000

     negative rho (up, down):  1.111E+01 1.089E+01


---------------------------------------------------------------------------------
Carrying out rVV10 run using the following parameters:
Nqs =      20    Nr_points =    1024   r_max =   100.000
b_value =  6.30000    beta =  0.00901
     q_mesh =  0.00010000  0.00030000  0.00058939  0.00100810
               0.00161396  0.00249058  0.00375900  0.00559430
               0.00824984  0.01209221  0.01765183  0.02569619
               0.03733578  0.05417739  0.07854596  0.11380545
               0.16482331  0.23864234  0.34545298  0.50000000

Gradients computed in Reciprocal space

---------------------------------------------------------------------------------




     ----------------------------------------------------------------

     Non-local correlation energy =             19.951348361105602

     ----------------------------------------------------------------

     Message from routine qexsd_readschema :
     xml data file ./out/calc.save/data-file-schema.xml not found
     Cannot read wfcs: file not found
     Starting wfcs are 1393 randomized atomic wfcs

     total cpu time spent up to now is      102.0 secs

     Self-consistent Calculation

     iteration #  1     ecut=    60.00 Ry     beta= 0.10
     CG style diagonalization

---- Real-time Memory Report at c_bands before calling an iterative solver
             0 MiB given to the printing process from OS
             0 MiB allocation reported by mallinfo(arena+hblkhd)
        119343 MiB available memory on the node where the printing process lives
------------------
     c_bands:  4 eigenvalues not converged
     c_bands:  2 eigenvalues not converged
     ethr =  1.00E-05,  avg # of iterations = 31.2

     negative rho (up, down):  1.127E+01 1.107E+01


     ----------------------------------------------------------------

     Non-local correlation energy =             19.800951317975994

     ----------------------------------------------------------------


     total cpu time spent up to now is    24672.0 secs

     total energy              =  -24487.36583095 Ry
     estimated scf accuracy    <     663.31399956 Ry

     total magnetization       =     8.01 Bohr mag/cell
     absolute magnetization    =     8.39 Bohr mag/cell

     iteration #  2     ecut=    60.00 Ry     beta= 0.10
     CG style diagonalization

---- Real-time Memory Report at c_bands before calling an iterative solver
             0 MiB given to the printing process from OS
             0 MiB allocation reported by mallinfo(arena+hblkhd)
        116502 MiB available memory on the node where the printing process lives
------------------
     ethr =  1.00E-02,  avg # of iterations =  3.0

     negative rho (up, down):  1.248E+01 1.239E+01


     ----------------------------------------------------------------

     Non-local correlation energy =             18.958635713906588

     ----------------------------------------------------------------


     total cpu time spent up to now is    26584.5 secs

     total energy              =  -24419.02203140 Ry
     estimated scf accuracy    <     495.82180722 Ry

     total magnetization       =     8.52 Bohr mag/cell
     absolute magnetization    =     8.94 Bohr mag/cell

     iteration #  3     ecut=    60.00 Ry     beta= 0.10
     CG style diagonalization

---- Real-time Memory Report at c_bands before calling an iterative solver
             0 MiB given to the printing process from OS
             0 MiB allocation reported by mallinfo(arena+hblkhd)
        116219 MiB available memory on the node where the printing process lives
------------------
     ethr =  1.00E-02,  avg # of iterations =  3.2

     negative rho (up, down):  1.222E+01 1.214E+01


     ----------------------------------------------------------------

     Non-local correlation energy =             18.880471432256105

     ----------------------------------------------------------------


     total cpu time spent up to now is    28644.6 secs

     total energy              =  -24445.93054667 Ry
     estimated scf accuracy    <      11.82623238 Ry

     total magnetization       =     7.12 Bohr mag/cell
     absolute magnetization    =     7.62 Bohr mag/cell

     iteration #  4     ecut=    60.00 Ry     beta= 0.10
     CG style diagonalization

---- Real-time Memory Report at c_bands before calling an iterative solver
             0 MiB given to the printing process from OS
             0 MiB allocation reported by mallinfo(arena+hblkhd)
        115964 MiB available memory on the node where the printing process lives
------------------
     ethr =  6.37E-04,  avg # of iterations =  4.3

     negative rho (up, down):  1.199E+01 1.190E+01


     ----------------------------------------------------------------

     Non-local correlation energy =             18.884108384486190

     ----------------------------------------------------------------


     total cpu time spent up to now is    31755.8 secs

     total energy              =  -24449.40348072 Ry
     estimated scf accuracy    <      11.17823758 Ry

     total magnetization       =     8.50 Bohr mag/cell
     absolute magnetization    =     8.77 Bohr mag/cell

     iteration #  5     ecut=    60.00 Ry     beta= 0.10
     CG style diagonalization

---- Real-time Memory Report at c_bands before calling an iterative solver
             0 MiB given to the printing process from OS
             0 MiB allocation reported by mallinfo(arena+hblkhd)
        115681 MiB available memory on the node where the printing process lives
------------------
     ethr =  6.02E-04,  avg # of iterations =  3.0

     negative rho (up, down):  1.134E+01 1.126E+01


     ----------------------------------------------------------------

     Non-local correlation energy =             18.883594867295280

     ----------------------------------------------------------------


     total cpu time spent up to now is    33668.5 secs

     total energy              =  -24449.25840803 Ry
     estimated scf accuracy    <      10.48383302 Ry

     total magnetization       =     7.55 Bohr mag/cell
     absolute magnetization    =     7.84 Bohr mag/cell

     iteration #  6     ecut=    60.00 Ry     beta= 0.10
     CG style diagonalization

---- Real-time Memory Report at c_bands before calling an iterative solver
             0 MiB given to the printing process from OS
             0 MiB allocation reported by mallinfo(arena+hblkhd)
        115415 MiB available memory on the node where the printing process lives
------------------
     ethr =  5.65E-04,  avg # of iterations =  3.0

     negative rho (up, down):  1.103E+01 1.096E+01


     ----------------------------------------------------------------

     Non-local correlation energy =             18.815999532546201

     ----------------------------------------------------------------


     total cpu time spent up to now is    35578.5 secs

     total energy              =  -24448.95672175 Ry
     estimated scf accuracy    <       2.19403250 Ry

     total magnetization       =     6.03 Bohr mag/cell
     absolute magnetization    =     6.39 Bohr mag/cell

     iteration #  7     ecut=    60.00 Ry     beta= 0.10
     CG style diagonalization

---- Real-time Memory Report at c_bands before calling an iterative solver
             0 MiB given to the printing process from OS
             0 MiB allocation reported by mallinfo(arena+hblkhd)
        115167 MiB available memory on the node where the printing process lives
------------------
     ethr =  1.18E-04,  avg # of iterations =  6.5

     negative rho (up, down):  1.093E+01 1.087E+01


     ----------------------------------------------------------------

     Non-local correlation energy =             18.753591083587022

     ----------------------------------------------------------------


     total cpu time spent up to now is    39825.1 secs

     total energy              =  -24448.88052961 Ry
     estimated scf accuracy    <       0.92194311 Ry

     total magnetization       =     5.34 Bohr mag/cell
     absolute magnetization    =     5.75 Bohr mag/cell

     iteration #  8     ecut=    60.00 Ry     beta= 0.10
     CG style diagonalization

---- Real-time Memory Report at c_bands before calling an iterative solver
             0 MiB given to the printing process from OS
             0 MiB allocation reported by mallinfo(arena+hblkhd)
        114938 MiB available memory on the node where the printing process lives
------------------
     ethr =  4.96E-05,  avg # of iterations =  6.8

     negative rho (up, down):  1.057E+01 1.052E+01


     ----------------------------------------------------------------

     Non-local correlation energy =             18.775228275104361

     ----------------------------------------------------------------


     total cpu time spent up to now is    44358.0 secs

     total energy              =  -24448.96517530 Ry
     estimated scf accuracy    <       0.94799621 Ry

     total magnetization       =     5.30 Bohr mag/cell
     absolute magnetization    =     5.68 Bohr mag/cell

     iteration #  9     ecut=    60.00 Ry     beta= 0.10
     CG style diagonalization

---- Real-time Memory Report at c_bands before calling an iterative solver
             0 MiB given to the printing process from OS
             0 MiB allocation reported by mallinfo(arena+hblkhd)
        114734 MiB available memory on the node where the printing process lives
------------------
     ethr =  4.96E-05,  avg # of iterations =  6.2

     negative rho (up, down):  1.045E+01 1.041E+01


     ----------------------------------------------------------------

     Non-local correlation energy =             18.778093244820671

     ----------------------------------------------------------------


     total cpu time spent up to now is    48348.1 secs

     total energy              =  -24449.00902238 Ry
     estimated scf accuracy    <       0.06221768 Ry

     total magnetization       =     4.72 Bohr mag/cell
     absolute magnetization    =     5.09 Bohr mag/cell

     iteration # 10     ecut=    60.00 Ry     beta= 0.10
     CG style diagonalization

---- Real-time Memory Report at c_bands before calling an iterative solver
             0 MiB given to the printing process from OS
             0 MiB allocation reported by mallinfo(arena+hblkhd)
        114505 MiB available memory on the node where the printing process lives
------------------
     c_bands:  5 eigenvalues not converged
     c_bands:  1 eigenvalues not converged
     ethr =  3.35E-06,  avg # of iterations =  8.8

     negative rho (up, down):  1.040E+01 1.036E+01


     ----------------------------------------------------------------

     Non-local correlation energy =             18.763242507127693

     ----------------------------------------------------------------


     total cpu time spent up to now is    54314.9 secs

     total energy              =  -24448.98829620 Ry
     estimated scf accuracy    <       0.32894848 Ry

     total magnetization       =     4.33 Bohr mag/cell
     absolute magnetization    =     4.69 Bohr mag/cell

     iteration # 11     ecut=    60.00 Ry     beta= 0.10
     CG style diagonalization

---- Real-time Memory Report at c_bands before calling an iterative solver
             0 MiB given to the printing process from OS
             0 MiB allocation reported by mallinfo(arena+hblkhd)
        114554 MiB available memory on the node where the printing process lives
------------------
     c_bands:  5 eigenvalues not converged
     c_bands:  2 eigenvalues not converged
     ethr =  3.35E-06,  avg # of iterations =  3.3

     negative rho (up, down):  1.038E+01 1.034E+01


     ----------------------------------------------------------------

     Non-local correlation energy =             18.757701155347938

     ----------------------------------------------------------------


     total cpu time spent up to now is    56537.0 secs

     total energy              =  -24448.99560621 Ry
     estimated scf accuracy    <       0.01931416 Ry

     total magnetization       =     4.09 Bohr mag/cell
     absolute magnetization    =     4.42 Bohr mag/cell

     iteration # 12     ecut=    60.00 Ry     beta= 0.10
     CG style diagonalization

---- Real-time Memory Report at c_bands before calling an iterative solver
             0 MiB given to the printing process from OS
             0 MiB allocation reported by mallinfo(arena+hblkhd)
        114575 MiB available memory on the node where the printing process lives
------------------
     c_bands:  5 eigenvalues not converged
     c_bands:  3 eigenvalues not converged
     ethr =  1.04E-06,  avg # of iterations =  3.5

     negative rho (up, down):  1.036E+01 1.033E+01


     ----------------------------------------------------------------

     Non-local correlation energy =             18.761698395989715

     ----------------------------------------------------------------


     total cpu time spent up to now is    58913.1 secs

     total energy              =  -24448.99509909 Ry
     estimated scf accuracy    <       0.01331745 Ry

     total magnetization       =     3.82 Bohr mag/cell
     absolute magnetization    =     4.12 Bohr mag/cell

     iteration # 13     ecut=    60.00 Ry     beta= 0.10
     CG style diagonalization

---- Real-time Memory Report at c_bands before calling an iterative solver
             0 MiB given to the printing process from OS
             0 MiB allocation reported by mallinfo(arena+hblkhd)
        114584 MiB available memory on the node where the printing process lives
------------------
     c_bands:  5 eigenvalues not converged
     c_bands:  3 eigenvalues not converged
     ethr =  7.17E-07,  avg # of iterations =  3.3

     negative rho (up, down):  1.033E+01 1.030E+01


     ----------------------------------------------------------------

     Non-local correlation energy =             18.765486711683380

     ----------------------------------------------------------------


     total cpu time spent up to now is    61128.5 secs

     total energy              =  -24448.99205399 Ry
     estimated scf accuracy    <       0.01008215 Ry

     total magnetization       =     3.62 Bohr mag/cell
     absolute magnetization    =     3.91 Bohr mag/cell

     iteration # 14     ecut=    60.00 Ry     beta= 0.10
     CG style diagonalization

---- Real-time Memory Report at c_bands before calling an iterative solver
             0 MiB given to the printing process from OS
             0 MiB allocation reported by mallinfo(arena+hblkhd)
        114584 MiB available memory on the node where the printing process lives
------------------
     c_bands:  5 eigenvalues not converged
     c_bands:  5 eigenvalues not converged
     ethr =  5.43E-07,  avg # of iterations =  3.3

     negative rho (up, down):  1.032E+01 1.030E+01


     ----------------------------------------------------------------

     Non-local correlation energy =             18.765478973801997

     ----------------------------------------------------------------


     total cpu time spent up to now is    63353.3 secs

     total energy              =  -24448.99207587 Ry
     estimated scf accuracy    <       0.00387168 Ry

     total magnetization       =     3.08 Bohr mag/cell
     absolute magnetization    =     3.32 Bohr mag/cell

     iteration # 15     ecut=    60.00 Ry     beta= 0.10
     CG style diagonalization

---- Real-time Memory Report at c_bands before calling an iterative solver
             0 MiB given to the printing process from OS
             0 MiB allocation reported by mallinfo(arena+hblkhd)
        114588 MiB available memory on the node where the printing process lives
------------------
     c_bands:  3 eigenvalues not converged
     c_bands:  5 eigenvalues not converged
     ethr =  2.08E-07,  avg # of iterations =  3.1

     negative rho (up, down):  1.031E+01 1.029E+01


     ----------------------------------------------------------------

     Non-local correlation energy =             18.767487046890423

     ----------------------------------------------------------------


     total cpu time spent up to now is    65398.6 secs

     total energy              =  -24448.99045855 Ry
     estimated scf accuracy    <       0.00285648 Ry

     total magnetization       =     2.87 Bohr mag/cell
     absolute magnetization    =     3.11 Bohr mag/cell

     iteration # 16     ecut=    60.00 Ry     beta= 0.10
     CG style diagonalization

---- Real-time Memory Report at c_bands before calling an iterative solver
             0 MiB given to the printing process from OS
             0 MiB allocation reported by mallinfo(arena+hblkhd)
        114588 MiB available memory on the node where the printing process lives
------------------
     c_bands:  5 eigenvalues not converged
     c_bands:  5 eigenvalues not converged
     ethr =  1.54E-07,  avg # of iterations =  3.4

     negative rho (up, down):  1.031E+01 1.029E+01


     ----------------------------------------------------------------

     Non-local correlation energy =             18.767198513599858

     ----------------------------------------------------------------


     total cpu time spent up to now is    67691.7 secs

     total energy              =  -24448.99112360 Ry
     estimated scf accuracy    <       0.00176213 Ry

     total magnetization       =     2.37 Bohr mag/cell
     absolute magnetization    =     2.56 Bohr mag/cell

     iteration # 17     ecut=    60.00 Ry     beta= 0.10
     CG style diagonalization

---- Real-time Memory Report at c_bands before calling an iterative solver
             0 MiB given to the printing process from OS
             0 MiB allocation reported by mallinfo(arena+hblkhd)
        114627 MiB available memory on the node where the printing process lives
------------------
     ethr =  9.49E-08,  avg # of iterations =  3.1

     negative rho (up, down):  1.029E+01 1.027E+01


     ----------------------------------------------------------------

     Non-local correlation energy =             18.767063319193074

     ----------------------------------------------------------------


     total cpu time spent up to now is    69689.6 secs

     total energy              =  -24448.99121776 Ry
     estimated scf accuracy    <       0.00151624 Ry

     total magnetization       =     2.37 Bohr mag/cell
     absolute magnetization    =     2.56 Bohr mag/cell

     iteration # 18     ecut=    60.00 Ry     beta= 0.10
     CG style diagonalization

---- Real-time Memory Report at c_bands before calling an iterative solver
             0 MiB given to the printing process from OS
             0 MiB allocation reported by mallinfo(arena+hblkhd)
        114630 MiB available memory on the node where the printing process lives
------------------
     c_bands:  4 eigenvalues not converged
     c_bands:  4 eigenvalues not converged
     ethr =  8.17E-08,  avg # of iterations =  3.3

     negative rho (up, down):  1.027E+01 1.026E+01


     ----------------------------------------------------------------

     Non-local correlation energy =             18.768476328768472

     ----------------------------------------------------------------


     total cpu time spent up to now is    71902.3 secs

     total energy              =  -24448.99069551 Ry
     estimated scf accuracy    <       0.00118727 Ry

     total magnetization       =     2.12 Bohr mag/cell
     absolute magnetization    =     2.29 Bohr mag/cell

     iteration # 19     ecut=    60.00 Ry     beta= 0.10
     CG style diagonalization

---- Real-time Memory Report at c_bands before calling an iterative solver
             0 MiB given to the printing process from OS
             0 MiB allocation reported by mallinfo(arena+hblkhd)
        114640 MiB available memory on the node where the printing process lives
------------------
     c_bands:  4 eigenvalues not converged
     c_bands:  2 eigenvalues not converged
     ethr =  6.39E-08,  avg # of iterations =  3.3

     negative rho (up, down):  1.026E+01 1.025E+01


     ----------------------------------------------------------------

     Non-local correlation energy =             18.768464446698552

     ----------------------------------------------------------------


     total cpu time spent up to now is    74114.3 secs

     total energy              =  -24448.99097022 Ry
     estimated scf accuracy    <       0.00057677 Ry

     total magnetization       =     1.56 Bohr mag/cell
     absolute magnetization    =     1.69 Bohr mag/cell

     iteration # 20     ecut=    60.00 Ry     beta= 0.10
     CG style diagonalization

---- Real-time Memory Report at c_bands before calling an iterative solver
             0 MiB given to the printing process from OS
             0 MiB allocation reported by mallinfo(arena+hblkhd)
        114658 MiB available memory on the node where the printing process lives
------------------
     ethr =  3.11E-08,  avg # of iterations =  3.1

     negative rho (up, down):  1.025E+01 1.024E+01


     ----------------------------------------------------------------

     Non-local correlation energy =             18.768055315760630

     ----------------------------------------------------------------


     total cpu time spent up to now is    76090.6 secs

     total energy              =  -24448.99088229 Ry
     estimated scf accuracy    <       0.00048792 Ry

     total magnetization       =     1.41 Bohr mag/cell
     absolute magnetization    =     1.53 Bohr mag/cell

     iteration # 21     ecut=    60.00 Ry     beta= 0.10
     CG style diagonalization

---- Real-time Memory Report at c_bands before calling an iterative solver
             0 MiB given to the printing process from OS
             0 MiB allocation reported by mallinfo(arena+hblkhd)
        114655 MiB available memory on the node where the printing process lives
------------------
     c_bands:  1 eigenvalues not converged
     ethr =  2.63E-08,  avg # of iterations =  3.2

     negative rho (up, down):  1.025E+01 1.024E+01


     ----------------------------------------------------------------

     Non-local correlation energy =             18.768431102417022

     ----------------------------------------------------------------


     total cpu time spent up to now is    78147.4 secs

     total energy              =  -24448.99095238 Ry
     estimated scf accuracy    <       0.00035167 Ry

     total magnetization       =     1.12 Bohr mag/cell
     absolute magnetization    =     1.22 Bohr mag/cell

     iteration # 22     ecut=    60.00 Ry     beta= 0.10
     CG style diagonalization

---- Real-time Memory Report at c_bands before calling an iterative solver
             0 MiB given to the printing process from OS
             0 MiB allocation reported by mallinfo(arena+hblkhd)
        114654 MiB available memory on the node where the printing process lives
------------------
     ethr =  1.89E-08,  avg # of iterations =  3.0

     negative rho (up, down):  1.024E+01 1.023E+01


     ----------------------------------------------------------------

     Non-local correlation energy =             18.769470472581716

     ----------------------------------------------------------------


     total cpu time spent up to now is    80060.1 secs

     total energy              =  -24448.99083446 Ry
     estimated scf accuracy    <       0.00030370 Ry

     total magnetization       =     1.05 Bohr mag/cell
     absolute magnetization    =     1.14 Bohr mag/cell

     iteration # 23     ecut=    60.00 Ry     beta= 0.10
     CG style diagonalization

---- Real-time Memory Report at c_bands before calling an iterative solver
             0 MiB given to the printing process from OS
             0 MiB allocation reported by mallinfo(arena+hblkhd)
        114655 MiB available memory on the node where the printing process lives
------------------
     ethr =  1.64E-08,  avg # of iterations =  3.1

     negative rho (up, down):  1.023E+01 1.023E+01


     ----------------------------------------------------------------

     Non-local correlation energy =             18.769634706068810

     ----------------------------------------------------------------


     total cpu time spent up to now is    82089.7 secs

     total energy              =  -24448.99086454 Ry
     estimated scf accuracy    <       0.00021254 Ry

     total magnetization       =     0.81 Bohr mag/cell
     absolute magnetization    =     0.88 Bohr mag/cell

     iteration # 24     ecut=    60.00 Ry     beta= 0.10
     CG style diagonalization

---- Real-time Memory Report at c_bands before calling an iterative solver
             0 MiB given to the printing process from OS
             0 MiB allocation reported by mallinfo(arena+hblkhd)
        114651 MiB available memory on the node where the printing process lives
------------------
     ethr =  1.14E-08,  avg # of iterations =  3.0

     negative rho (up, down):  1.021E+01 1.021E+01


     ----------------------------------------------------------------

     Non-local correlation energy =             18.770324437905611

     ----------------------------------------------------------------


     total cpu time spent up to now is    83997.8 secs

     total energy              =  -24448.99106107 Ry
     estimated scf accuracy    <       0.00016511 Ry

     total magnetization       =     0.77 Bohr mag/cell
     absolute magnetization    =     0.83 Bohr mag/cell

     iteration # 25     ecut=    60.00 Ry     beta= 0.10
     CG style diagonalization

---- Real-time Memory Report at c_bands before calling an iterative solver
             0 MiB given to the printing process from OS
             0 MiB allocation reported by mallinfo(arena+hblkhd)
        114655 MiB available memory on the node where the printing process lives
------------------
     c_bands:  4 eigenvalues not converged
     c_bands:  5 eigenvalues not converged
     ethr =  8.89E-09,  avg # of iterations =  3.5

     negative rho (up, down):  1.021E+01 1.021E+01


     ----------------------------------------------------------------

     Non-local correlation energy =             18.770357812979601

     ----------------------------------------------------------------


     total cpu time spent up to now is    86387.7 secs

     total energy              =  -24448.99115531 Ry
     estimated scf accuracy    <       0.00003373 Ry

     total magnetization       =     0.52 Bohr mag/cell
     absolute magnetization    =     0.56 Bohr mag/cell

     iteration # 26     ecut=    60.00 Ry     beta= 0.10
     CG style diagonalization

---- Real-time Memory Report at c_bands before calling an iterative solver
             0 MiB given to the printing process from OS
             0 MiB allocation reported by mallinfo(arena+hblkhd)
        114648 MiB available memory on the node where the printing process lives
------------------
     c_bands:  3 eigenvalues not converged
     c_bands:  3 eigenvalues not converged
     ethr =  1.82E-09,  avg # of iterations =  3.1

     negative rho (up, down):  1.021E+01 1.020E+01


     ----------------------------------------------------------------

     Non-local correlation energy =             18.770419072175535

     ----------------------------------------------------------------


     total cpu time spent up to now is    88377.3 secs

     total energy              =  -24448.99129291 Ry
     estimated scf accuracy    <       0.00002668 Ry

     total magnetization       =     0.50 Bohr mag/cell
     absolute magnetization    =     0.55 Bohr mag/cell

     iteration # 27     ecut=    60.00 Ry     beta= 0.10
     CG style diagonalization

---- Real-time Memory Report at c_bands before calling an iterative solver
             0 MiB given to the printing process from OS
             0 MiB allocation reported by mallinfo(arena+hblkhd)
        114651 MiB available memory on the node where the printing process lives
------------------
     ethr =  1.44E-09,  avg # of iterations =  3.2

     negative rho (up, down):  1.021E+01 1.020E+01


     ----------------------------------------------------------------

     Non-local correlation energy =             18.770418577108526

     ----------------------------------------------------------------


     total cpu time spent up to now is    90459.5 secs

     total energy              =  -24448.99134591 Ry
     estimated scf accuracy    <       0.00001871 Ry

     total magnetization       =     0.44 Bohr mag/cell
     absolute magnetization    =     0.48 Bohr mag/cell

     iteration # 28     ecut=    60.00 Ry     beta= 0.10
     CG style diagonalization

---- Real-time Memory Report at c_bands before calling an iterative solver
             0 MiB given to the printing process from OS
             0 MiB allocation reported by mallinfo(arena+hblkhd)
        114636 MiB available memory on the node where the printing process lives
------------------
     c_bands:  2 eigenvalues not converged
     ethr =  1.01E-09,  avg # of iterations =  3.2

     negative rho (up, down):  1.021E+01 1.020E+01


     ----------------------------------------------------------------

     Non-local correlation energy =             18.770535621496890

     ----------------------------------------------------------------


     total cpu time spent up to now is    92597.0 secs

     total energy              =  -24448.99136066 Ry
     estimated scf accuracy    <       0.00001012 Ry

     total magnetization       =     0.37 Bohr mag/cell
     absolute magnetization    =     0.40 Bohr mag/cell

     iteration # 29     ecut=    60.00 Ry     beta= 0.10
     CG style diagonalization

---- Real-time Memory Report at c_bands before calling an iterative solver
             0 MiB given to the printing process from OS
             0 MiB allocation reported by mallinfo(arena+hblkhd)
        114646 MiB available memory on the node where the printing process lives
------------------
     c_bands:  2 eigenvalues not converged
     c_bands:  2 eigenvalues not converged
     ethr =  5.45E-10,  avg # of iterations =  3.5

     negative rho (up, down):  1.020E+01 1.020E+01


     ----------------------------------------------------------------

     Non-local correlation energy =             18.770559139326515

     ----------------------------------------------------------------


     total cpu time spent up to now is    95008.1 secs

     total energy              =  -24448.99134227 Ry
     estimated scf accuracy    <       0.00000803 Ry

     total magnetization       =     0.30 Bohr mag/cell
     absolute magnetization    =     0.32 Bohr mag/cell

     iteration # 30     ecut=    60.00 Ry     beta= 0.10
     CG style diagonalization

---- Real-time Memory Report at c_bands before calling an iterative solver
             0 MiB given to the printing process from OS
             0 MiB allocation reported by mallinfo(arena+hblkhd)
        114645 MiB available memory on the node where the printing process lives
------------------
     ethr =  4.32E-10,  avg # of iterations =  3.2

     negative rho (up, down):  1.020E+01 1.020E+01


     ----------------------------------------------------------------

     Non-local correlation energy =             18.770556026409309

     ----------------------------------------------------------------


     total cpu time spent up to now is    97128.2 secs

     total energy              =  -24448.99136059 Ry
     estimated scf accuracy    <       0.00000352 Ry

     total magnetization       =     0.26 Bohr mag/cell
     absolute magnetization    =     0.29 Bohr mag/cell

     iteration # 31     ecut=    60.00 Ry     beta= 0.10
     CG style diagonalization

---- Real-time Memory Report at c_bands before calling an iterative solver
             0 MiB given to the printing process from OS
             0 MiB allocation reported by mallinfo(arena+hblkhd)
        114648 MiB available memory on the node where the printing process lives
------------------
     ethr =  1.89E-10,  avg # of iterations =  3.0

     negative rho (up, down):  1.020E+01 1.020E+01


     ----------------------------------------------------------------

     Non-local correlation energy =             18.770508473740392

     ----------------------------------------------------------------


     total cpu time spent up to now is    99036.8 secs

     total energy              =  -24448.99137995 Ry
     estimated scf accuracy    <       0.00000275 Ry

     total magnetization       =     0.26 Bohr mag/cell
     absolute magnetization    =     0.28 Bohr mag/cell

     iteration # 32     ecut=    60.00 Ry     beta= 0.10
     CG style diagonalization

---- Real-time Memory Report at c_bands before calling an iterative solver
             0 MiB given to the printing process from OS
             0 MiB allocation reported by mallinfo(arena+hblkhd)
        114675 MiB available memory on the node where the printing process lives
------------------
     ethr =  1.48E-10,  avg # of iterations =  3.0

     negative rho (up, down):  1.020E+01 1.020E+01


     ----------------------------------------------------------------

     Non-local correlation energy =             18.770534167750760

     ----------------------------------------------------------------


     total cpu time spent up to now is   100951.0 secs

     total energy              =  -24448.99140445 Ry
     estimated scf accuracy    <       0.00000217 Ry

     total magnetization       =     0.26 Bohr mag/cell
     absolute magnetization    =     0.28 Bohr mag/cell

     iteration # 33     ecut=    60.00 Ry     beta= 0.10
     CG style diagonalization

---- Real-time Memory Report at c_bands before calling an iterative solver
             0 MiB given to the printing process from OS
             0 MiB allocation reported by mallinfo(arena+hblkhd)
        114668 MiB available memory on the node where the printing process lives
------------------
     ethr =  1.17E-10,  avg # of iterations =  3.0

     negative rho (up, down):  1.020E+01 1.020E+01


     ----------------------------------------------------------------

     Non-local correlation energy =             18.770562837503132

     ----------------------------------------------------------------


     total cpu time spent up to now is   102870.1 secs

     total energy              =  -24448.99141252 Ry
     estimated scf accuracy    <       0.00000141 Ry

     total magnetization       =     0.24 Bohr mag/cell
     absolute magnetization    =     0.26 Bohr mag/cell

     iteration # 34     ecut=    60.00 Ry     beta= 0.10
     CG style diagonalization

---- Real-time Memory Report at c_bands before calling an iterative solver
             0 MiB given to the printing process from OS
             0 MiB allocation reported by mallinfo(arena+hblkhd)
        114670 MiB available memory on the node where the printing process lives
------------------
     ethr =  7.57E-11,  avg # of iterations =  3.1

     negative rho (up, down):  1.020E+01 1.020E+01


     ----------------------------------------------------------------

     Non-local correlation energy =             18.770513228917640

     ----------------------------------------------------------------

 
     Magnetic moment per site  (integrated on atomic sphere of radius R)
     atom   1 (R=0.034)  charge= 11.1572  magn=  0.0013
     atom   2 (R=0.034)  charge= 11.1601  magn=  0.0014
     atom   3 (R=0.034)  charge= 11.1291  magn=  0.0007
     atom   4 (R=0.034)  charge= 11.1300  magn=  0.0012
     atom   5 (R=0.034)  charge= 11.1583  magn=  0.0015
     atom   6 (R=0.034)  charge= 11.1332  magn=  0.0009
     atom   7 (R=0.034)  charge= 11.1589  magn=  0.0015
     atom   8 (R=0.034)  charge= 11.1420  magn=  0.0005
     atom   9 (R=0.034)  charge= 11.1421  magn=  0.0007
     atom  10 (R=0.034)  charge= 11.1316  magn=  0.0016
     atom  11 (R=0.034)  charge= 11.1326  magn=  0.0015
     atom  12 (R=0.034)  charge= 11.1433  magn=  0.0009
     atom  13 (R=0.034)  charge= 11.1589  magn=  0.0021
     atom  14 (R=0.034)  charge= 11.1306  magn=  0.0012
     atom  15 (R=0.034)  charge= 11.1315  magn=  0.0019
     atom  16 (R=0.034)  charge= 11.1589  magn=  0.0022
     atom  17 (R=0.034)  charge= 11.1300  magn=  0.0011
     atom  18 (R=0.034)  charge= 11.1436  magn=  0.0009
     atom  19 (R=0.034)  charge= 11.1587  magn=  0.0020
     atom  20 (R=0.034)  charge= 11.1313  magn=  0.0018
     atom  21 (R=0.034)  charge= 11.1303  magn=  0.0011
     atom  22 (R=0.034)  charge= 11.1439  magn=  0.0010
     atom  23 (R=0.034)  charge= 11.1304  magn=  0.0012
     atom  24 (R=0.034)  charge= 11.1309  magn=  0.0012
     atom  25 (R=0.034)  charge= 11.1585  magn=  0.0021
     atom  26 (R=0.034)  charge= 11.1310  magn=  0.0010
     atom  27 (R=0.034)  charge= 11.1585  magn=  0.0018
     atom  28 (R=0.034)  charge= 11.1587  magn=  0.0017
     atom  29 (R=0.034)  charge= 11.1436  magn=  0.0007
     atom  30 (R=0.034)  charge= 11.1320  magn=  0.0015
     atom  31 (R=0.034)  charge= 11.1427  magn=  0.0007
     atom  32 (R=0.034)  charge= 11.1319  magn=  0.0017
     atom  33 (R=0.034)  charge= 11.1422  magn=  0.0009
     atom  34 (R=0.034)  charge= 11.1323  magn=  0.0013
     atom  35 (R=0.034)  charge= 11.1585  magn=  0.0021
     atom  36 (R=0.034)  charge= 11.1325  magn=  0.0020
     atom  37 (R=0.034)  charge= 11.1583  magn=  0.0023
     atom  38 (R=0.034)  charge= 11.1435  magn=  0.0008
     atom  39 (R=0.034)  charge= 11.1315  magn=  0.0015
     atom  40 (R=0.034)  charge= 11.1317  magn=  0.0016
     atom  41 (R=0.034)  charge= 11.1423  magn=  0.0007
     atom  42 (R=0.034)  charge= 11.1273  magn=  0.0015
     atom  43 (R=0.034)  charge= 11.1247  magn=  0.0007
     atom  44 (R=0.034)  charge= 11.1248  magn=  0.0007
     atom  45 (R=0.034)  charge= 11.1260  magn=  0.0006
     atom  46 (R=0.034)  charge= 11.1267  magn=  0.0020
     atom  47 (R=0.034)  charge= 11.1319  magn=  0.0020
     atom  48 (R=0.034)  charge= 11.1313  magn=  0.0022
     atom  49 (R=0.034)  charge= 11.1248  magn=  0.0008
     atom  50 (R=0.034)  charge= 11.1432  magn=  0.0011
     atom  51 (R=0.034)  charge= 11.1424  magn=  0.0008
     atom  52 (R=0.034)  charge= 11.1434  magn=  0.0009
     atom  53 (R=0.034)  charge= 11.1305  magn=  0.0011
     atom  54 (R=0.034)  charge= 11.1315  magn=  0.0016
     atom  55 (R=0.034)  charge= 11.1584  magn=  0.0018
     atom  56 (R=0.034)  charge= 11.1280  magn=  0.0019
     atom  57 (R=0.034)  charge= 11.1314  magn=  0.0019
     atom  58 (R=0.034)  charge= 11.1248  magn=  0.0008
     atom  59 (R=0.034)  charge= 11.1321  magn=  0.0020
     atom  60 (R=0.034)  charge= 11.1270  magn=  0.0019
     atom  61 (R=0.034)  charge= 11.1306  magn=  0.0012
     atom  62 (R=0.034)  charge= 11.1317  magn=  0.0019
     atom  63 (R=0.034)  charge= 11.1317  magn=  0.0020
     atom  64 (R=0.034)  charge= 11.1436  magn=  0.0011
     atom  65 (R=0.034)  charge= 11.1587  magn=  0.0021
     atom  66 (R=0.034)  charge= 11.1584  magn=  0.0021
     atom  67 (R=0.034)  charge= 11.1435  magn=  0.0010
     atom  68 (R=0.034)  charge= 11.1426  magn=  0.0007
     atom  69 (R=0.034)  charge= 11.1435  magn=  0.0011
     atom  70 (R=0.034)  charge= 11.1584  magn=  0.0022
     atom  71 (R=0.034)  charge= 11.1307  magn=  0.0011
     atom  72 (R=0.034)  charge= 11.1437  magn=  0.0010
     atom  73 (R=0.034)  charge= 11.1316  magn=  0.0019
     atom  74 (R=0.034)  charge= 11.1585  magn=  0.0022
     atom  75 (R=0.034)  charge= 11.1307  magn=  0.0012
     atom  76 (R=0.034)  charge= 11.1436  magn=  0.0011
     atom  77 (R=0.034)  charge= 11.1299  magn=  0.0013
     atom  78 (R=0.034)  charge= 11.1306  magn=  0.0013
     atom  79 (R=0.034)  charge= 11.1438  magn=  0.0009
     atom  80 (R=0.034)  charge= 11.1315  magn=  0.0017
     atom  81 (R=0.034)  charge= 11.1307  magn=  0.0012
     atom  82 (R=0.034)  charge= 11.1586  magn=  0.0020
     atom  83 (R=0.034)  charge= 11.1269  magn=  0.0019
     atom  84 (R=0.034)  charge= 11.1253  magn=  0.0008
     atom  85 (R=0.034)  charge= 11.1316  magn=  0.0019
     atom  86 (R=0.034)  charge= 11.1316  magn=  0.0019
     atom  87 (R=0.034)  charge= 11.1269  magn=  0.0021
     atom  88 (R=0.034)  charge= 11.1314  magn=  0.0019
     atom  89 (R=0.034)  charge= 11.1304  magn=  0.0013
     atom  90 (R=0.034)  charge= 11.1317  magn=  0.0020
     atom  91 (R=0.034)  charge= 11.1429  magn=  0.0011
     atom  92 (R=0.034)  charge= 11.1585  magn=  0.0021
     atom  93 (R=0.034)  charge= 11.1436  magn=  0.0010
     atom  94 (R=0.034)  charge= 11.1305  magn=  0.0012
     atom  95 (R=0.034)  charge= 11.1307  magn=  0.0012
     atom  96 (R=0.034)  charge= 11.1273  magn=  0.0019
     atom  97 (R=0.034)  charge= 11.1317  magn=  0.0020
     atom  98 (R=0.034)  charge= 11.1316  magn=  0.0020
     atom  99 (R=0.034)  charge= 11.1303  magn=  0.0013
     atom 100 (R=0.034)  charge= 11.1270  magn=  0.0021
     atom 101 (R=0.034)  charge= 11.1304  magn=  0.0013
     atom 102 (R=0.034)  charge= 11.1304  magn=  0.0013
     atom 103 (R=0.034)  charge= 11.1303  magn=  0.0013
     atom 104 (R=0.034)  charge= 11.1436  magn=  0.0011
     atom 105 (R=0.034)  charge= 11.1432  magn=  0.0011
     atom 106 (R=0.034)  charge= 11.1578  magn=  0.0023
     atom 107 (R=0.034)  charge= 11.1434  magn=  0.0012
     atom 108 (R=0.034)  charge= 11.1586  magn=  0.0022
     atom 109 (R=0.034)  charge= 11.1586  magn=  0.0021
     atom 110 (R=0.034)  charge= 11.1437  magn=  0.0010
     atom 111 (R=0.034)  charge= 11.1426  magn=  0.0008
     atom 112 (R=0.034)  charge= 11.1436  magn=  0.0011
     atom 113 (R=0.034)  charge= 11.1587  magn=  0.0022
     atom 114 (R=0.034)  charge= 11.1436  magn=  0.0011
     atom 115 (R=0.034)  charge= 11.1584  magn=  0.0022
     atom 116 (R=0.034)  charge= 11.1437  magn=  0.0011
     atom 117 (R=0.034)  charge=  1.0403  magn=  0.0000

     total cpu time spent up to now is   104851.3 secs

     End of self-consistent calculation

 ------ SPIN UP ------------


          k = 0.0000 0.0000 0.0000 (413569 PWs)   bands (ev):

   -55.5421 -55.4885 -55.4874 -55.4866 -55.4736 -55.4726 -55.4716 -55.4637
   -55.4628 -55.4613 -55.4595 -55.4565 -55.4127 -55.4119 -55.4113 -55.4107
   -55.4098 -55.4089 -55.3854 -55.3833 -55.3753 -55.3740 -55.3681 -55.3669
   -55.3669 -55.3658 -55.3651 -55.3618 -55.3580 -55.3295 -55.3286 -55.3273
   -55.2990 -55.2988 -55.2983 -55.2977 -55.2972 -55.2967 -55.2963 -55.2939
   -55.2926 -55.2882 -55.2814 -55.2752 -55.2726 -55.2583 -55.2578 -55.2575
   -55.2544 -55.2532 -55.2521 -55.2510 -55.2502 -55.2499 -55.2413 -55.2400
   -55.2380 -55.2374 -55.2221 -55.2201 -55.2197 -55.2173 -55.2162 -55.2152
   -55.2122 -55.2120 -55.2059 -55.2039 -55.2019 -55.2013 -55.1997 -55.1749
   -55.1742 -55.1726 -55.1691 -55.1676 -55.1669 -55.1665 -55.1655 -55.1631
   -55.1615 -55.1597 -55.1376 -55.1355 -55.1332 -55.1282 -55.1269 -55.1251
   -55.1220 -55.1194 -55.1108 -55.1092 -55.0991 -55.0975 -55.0969 -55.0947
   -55.0939 -55.0933 -55.0926 -55.0920 -55.0919 -55.0911 -55.0886 -55.0860
   -55.0846 -55.0843 -55.0824 -55.0755 -55.0740 -55.0715 -55.0664 -55.0653
   -55.0651 -55.0594 -54.9735 -54.9220 -54.8939 -54.8925 -54.8917 -54.8907
   -54.8900 -54.8884 -54.8806 -54.8470 -54.8371 -54.8363 -54.8350 -54.8339
   -54.8330 -54.8329 -54.8318 -54.8310 -54.8305 -54.8289 -54.8273 -54.8263
   -54.8242 -54.8215 -54.8152 -54.7775 -54.7719 -54.7712 -54.7703 -54.7659
   -54.7635 -54.7624 -54.7562 -54.7469 -54.7298 -54.7277 -54.7257 -54.7244
   -54.7206 -54.7196 -54.7186 -54.7181 -54.7177 -54.7174 -54.7156 -54.7141
   -54.7128 -54.7113 -54.7061 -54.7032 -54.7007 -54.6989 -54.6966 -54.6960
   -54.6952 -54.6943 -54.6925 -54.6924 -54.6918 -54.6894 -54.6874 -54.6861
   -54.6854 -54.6842 -54.6787 -54.6607 -54.6594 -54.6586 -54.6574 -54.6560
   -54.6558 -54.6494 -54.6486 -54.6481 -54.6478 -54.6466 -54.6448 -54.6403
   -54.6372 -54.6357 -54.6346 -54.6326 -54.6310 -54.6285 -54.5798 -54.5395
   -54.5368 -54.5326 -54.5238 -54.5231 -54.5217 -54.5213 -54.5194 -54.5158
   -54.5127 -54.5114 -54.5095 -54.4831 -54.4774 -54.4767 -54.4754 -54.4745
   -54.4739 -54.4723 -54.4688 -54.4684 -54.4661 -54.4653 -54.4643 -54.4642
   -54.4634 -54.4631 -54.4622 -54.4607 -54.4595 -54.4579 -54.4509 -54.4493
   -54.4491 -54.4477 -54.4451 -54.4443 -54.4435 -54.4433 -54.4427 -54.4423
   -54.4397 -54.4353 -54.4284 -54.4268 -54.4258 -54.4250 -54.4232 -54.4216
   -54.4194 -54.4189 -54.4182 -54.4176 -54.4158 -54.4089 -54.4068 -54.4057
   -54.4055 -54.4049 -54.4045 -54.4033 -54.3689 -54.3675 -54.3666 -54.3663
   -54.3643 -54.3631 -54.3598 -54.3586 -54.3581 -54.3580 -54.3572 -54.3565
   -54.3564 -54.3551 -54.3517 -54.3513 -54.3492 -54.3448 -54.3402 -54.3370
   -54.3360 -54.3355 -54.3349 -54.3344 -54.3339 -54.3332 -54.3288 -54.3235
   -54.3231 -54.3222 -54.3220 -54.3215 -54.3214 -54.3211 -54.3210 -54.3206
   -54.3203 -54.3198 -54.3192 -54.3190 -54.3184 -54.3065 -54.3061 -54.3050
   -54.3048 -54.3044 -54.3033 -54.3013 -54.2984 -54.2984 -54.2974 -54.2964
   -54.2960 -54.2957 -54.2955 -54.2953 -54.2946 -54.2943 -54.2936 -54.2932
   -54.2912 -54.2886 -54.2867 -54.2843 -54.2767 -54.2456 -54.2449 -54.2447
   -54.2430 -54.2424 -54.2416 -54.2414 -54.2412 -54.2402 -54.2399 -54.2391
   -54.2125 -54.2113 -54.2111 -54.2106 -54.2091 -54.2087 -54.2085 -54.2081
   -54.2070 -54.2069 -54.2064 -54.2060 -11.5022 -10.6749 -10.6578 -10.6564
    -9.8422  -9.7874  -9.7872  -9.7652  -9.7582  -9.5641  -9.2251  -9.1771
    -9.1767  -9.0987  -9.0501  -8.9549  -8.9531  -8.8679  -8.7643  -8.7495
    -8.7480  -8.7124  -8.7120  -8.6979  -8.6412  -8.5849  -8.5843  -8.5808
    -8.5780  -8.5776  -8.5678  -8.5550  -8.5517  -8.5505  -8.3902  -8.3816
    -8.3803  -8.3595  -8.3341  -8.3245  -8.3189  -8.3184  -8.3016  -8.2899
    -8.2887  -8.2490  -8.2461  -8.2460  -8.2173  -8.1152  -8.1087  -8.0560
    -8.0549  -8.0336  -7.9877  -7.9677  -7.9528  -7.9083  -7.9070  -7.9067
    -7.9061  -7.9056  -7.8728  -7.8602  -7.8338  -7.8301  -7.8292  -7.8235
    -7.8229  -7.7802  -7.7310  -7.7153  -7.6970  -7.6943  -7.6757  -7.6622
    -7.5824  -7.5802  -7.5776  -7.5707  -7.5692  -7.5689  -7.5683  -7.5677
    -7.5668  -7.5621  -7.5603  -7.5591  -7.5492  -7.5413  -7.5408  -7.4856
    -7.4674  -7.4614  -7.4556  -7.4527  -7.4516  -7.4515  -7.4435  -7.4424
    -7.4392  -7.4331  -7.4317  -7.4090  -7.3911  -7.3862  -7.3844  -7.3300
    -7.3166  -7.3085  -7.2331  -7.2271  -7.2263  -7.1945  -7.1834  -7.1825
    -7.1436  -7.0991  -7.0961  -7.0817  -7.0627  -7.0616  -7.0455  -6.9931
    -6.9918  -6.9633  -6.9515  -6.9484  -6.9305  -6.9143  -6.9095  -6.9074
    -6.9008  -6.8970  -6.8541  -6.7974  -6.7946  -6.7851  -6.7164  -6.6946
    -6.6432  -6.6363  -6.5913  -6.5864  -6.5818  -6.5803  -6.5783  -6.5728
    -6.5627  -6.5608  -6.5557  -6.5266  -6.5229  -6.5206  -6.5186  -6.5172
    -6.5051  -6.4675  -6.4638  -6.4563  -6.4546  -6.4512  -6.4503  -6.4496
    -6.4482  -6.4480  -6.4457  -6.4455  -6.4446  -6.4444  -6.3967  -6.3443
    -6.3391  -6.3342  -6.3321  -6.3291  -6.3219  -6.3037  -6.2960  -6.2912
    -6.2846  -6.2363  -6.2308  -6.2291  -6.2277  -6.2259  -6.2250  -6.2181
    -6.1978  -6.1960  -6.1830  -6.1794  -6.1766  -6.1377  -6.1209  -6.1018
    -6.1007  -6.0837  -6.0742  -6.0711  -6.0685  -6.0500  -6.0361  -6.0293
    -6.0248  -6.0125  -6.0107  -6.0041  -5.9976  -5.9903  -5.9886  -5.9823
    -5.9806  -5.9785  -5.9281  -5.9050  -5.8959  -5.8932  -5.8930  -5.8842
    -5.8615  -5.8608  -5.8300  -5.8153  -5.8142  -5.7539  -5.7267  -5.7204
    -5.7009  -5.6978  -5.6948  -5.6795  -5.6782  -5.6548  -5.6516  -5.6434
    -5.6416  -5.6372  -5.6302  -5.6288  -5.6272  -5.6252  -5.6222  -5.6114
    -5.6076  -5.6052  -5.5583  -5.5292  -5.5134  -5.5127  -5.5082  -5.5010
    -5.4985  -5.4918  -5.4717  -5.4713  -5.4674  -5.4503  -5.4498  -5.4489
    -5.4312  -5.4258  -5.4049  -5.4030  -5.4020  -5.3936  -5.3823  -5.3616
    -5.3559  -5.3142  -5.3117  -5.3004  -5.2840  -5.2779  -5.2423  -5.2244
    -5.2233  -5.2149  -5.2053  -5.1660  -5.1616  -5.1590  -5.1481  -5.1461
    -5.1203  -5.1160  -5.1149  -5.1120  -5.1110  -5.1051  -5.1010  -5.0990
    -5.0960  -5.0656  -5.0632  -5.0593  -5.0453  -5.0373  -5.0340  -5.0011
    -4.9903  -4.9807  -4.9789  -4.9754  -4.9679  -4.9667  -4.9649  -4.9644
    -4.9096  -4.8772  -4.8743  -4.8735  -4.8412  -4.8400  -4.8364  -4.8291
    -4.8257  -4.8101  -4.8075  -4.8022  -4.7964  -4.7956  -4.7570  -4.7490
    -4.7455  -4.7369  -4.7355  -4.7332  -4.7281  -4.6505  -4.6262  -4.6229
    -4.5802  -4.5523  -4.5492  -4.5478  -4.5428  -4.5400  -4.5300  -4.5240
    -4.5102  -4.5016  -4.4978  -4.4949  -4.4901  -4.4895  -4.4684  -4.4629
    -4.4544  -4.4512  -4.4508  -4.4427  -4.4039  -4.3855  -4.3704  -4.3554
    -4.3455  -4.3443  -4.3406  -4.3362  -4.3192  -4.3118  -4.3085  -4.3064
    -4.3031  -4.3024  -4.2909  -4.2736  -4.2704  -4.2664  -4.2640  -4.2622
    -4.2591  -4.2586  -4.2410  -4.2387  -4.2368  -4.1802  -4.1554  -4.1537
    -4.1304  -4.1257  -4.1237  -4.1226  -4.1060  -4.0941  -4.0920  -4.0902
    -4.0886  -4.0879  -4.0471  -4.0258  -4.0239  -4.0115  -4.0057  -3.9990
    -3.9633  -3.9607  -3.9568  -3.9247  -3.9162  -3.9028  -3.9001  -3.8980
    -3.8968  -3.8828  -3.8779  -3.8765  -3.8541  -3.8207  -3.8058  -3.7985
    -3.7937  -3.7917  -3.7914  -3.7847  -3.7787  -3.7784  -3.7764  -3.7749
    -3.7700  -3.7634  -3.7422  -3.7396  -3.7356  -3.7311  -3.7285  -3.7253
    -3.7082  -3.7066  -3.7006  -3.6826  -3.6800  -3.6695  -3.6680  -3.6664
    -3.6293  -3.6135  -3.6111  -3.6096  -3.6033  -3.6028  -3.5949  -3.5896
    -3.5877  -3.5758  -3.5590  -3.5585  -3.5490  -3.5336  -3.5292  -3.5261
    -3.5200  -3.5175  -3.4920  -3.4862  -3.4835  -3.4764  -3.4515  -3.4300
    -3.4136  -3.4081  -3.4011  -3.3934  -3.3897  -3.3577  -3.3497  -3.3480
    -3.3452  -3.3253  -3.3199  -3.3152  -3.3117  -3.2899  -3.2895  -3.2419
    -3.2396  -3.2295  -3.2250  -3.2228  -3.2130  -3.2049  -3.2029  -3.1968
    -3.1925  -3.1912  -3.1729  -3.1722  -3.1703  -3.1669  -3.1618  -3.1583
    -3.1214  -3.1163  -3.1037  -3.1002  -3.0970  -3.0965  -3.0917  -3.0874
    -3.0850  -3.0843  -3.0835  -3.0784  -3.0754  -3.0563  -3.0486  -3.0471
    -3.0238  -2.9988  -2.9972  -2.9785  -2.9760  -2.9742  -2.9713  -2.9670
    -2.9657  -2.9288  -2.9067  -2.9027  -2.8675  -2.8644  -2.8570  -2.8511
    -2.8499  -2.8467  -2.8378  -2.8329  -2.8326  -2.8307  -2.7810  -2.7804
    -2.7786  -2.7758  -2.7436  -2.7405  -2.7022  -2.6908  -2.6860  -2.6834
    -2.6822  -2.6804  -2.6802  -2.6791  -2.6786  -2.6761  -2.6751  -2.6399
    -2.6239  -2.6221  -2.6216  -2.6063  -2.6017  -2.5987  -2.5966  -2.5958
    -2.5938  -2.5935  -2.5910  -2.5887  -2.5879  -2.5872  -2.5850  -2.5842
    -2.5800  -2.5763  -2.5583  -2.5539  -2.5514  -2.5505  -2.5279  -2.5273
    -2.5243  -2.5233  -2.5227  -2.5194  -2.4745  -2.4724  -2.4380  -2.4335
    -2.4311  -2.4299  -2.4043  -2.3955  -2.3945  -2.3796  -2.3758  -2.3727
    -2.3557  -2.3477  -2.3441  -2.3256  -2.2932  -2.2921  -2.2906  -2.2776
    -2.2755  -2.2661  -2.2568  -2.2545  -2.2541  -2.2538  -2.2472  -2.2077
    -2.2055  -2.2046  -2.1704  -2.1595  -2.1360  -2.1249  -2.1118  -2.0837
    -2.0746  -2.0677  -2.0650  -2.0539  -2.0515  -2.0504  -2.0484  -2.0456
    -2.0452  -2.0443  -2.0430  -2.0423  -1.8471  -1.8339  -1.5079  -1.2876
    -1.2787  -1.2780  -1.2769  -1.2763  -1.2385  -1.2047  -1.1523  -1.1504
    -1.1496  -1.1399  -1.1383  -1.1227  -1.1045  -1.1022  -1.1002  -1.0497
    -1.0418  -1.0342  -0.9434  -0.9262  -0.9183  -0.5514  -0.4306  -0.4297
    -0.2264  -0.1384  -0.0004   0.0079   0.0374   0.0728   0.0758   0.0872
     0.0917   0.0960   0.1240   0.1604   0.1666   0.2193   0.2664   0.2678
     0.2711   0.2754   0.2771   0.2797   0.2835   0.2891   0.2948   0.3997
     0.4101   0.4127   0.4962   1.1471   1.2201   1.2269   1.2776   1.3556
     1.3632   1.3654   1.4704   1.4777   1.4855   1.4957   1.5013   1.5040
     1.5047   1.5321   1.5378   1.5406   1.5641   1.5679   1.5724   1.6068
     1.6133   1.6534   1.6711   1.6754   1.6779   1.6925   1.6967   1.8994
     2.1795   2.2238   2.2332   2.3096   2.3214   2.3242   2.3788   2.4989
     2.5005   2.5260   2.5268   2.5277   2.6215   2.6643   2.7021   2.7068
     2.7107   2.7218   2.7287   2.7689   2.7715   2.7727   2.7843   2.7859
     2.7872   2.7966   2.8000   2.8328   2.8351   2.8466   2.8578   2.8617
     2.8731   2.8882   2.8901   2.8906   2.8958   2.9319   2.9648   2.9662
     2.9848   3.0176   3.1089   3.1131   3.1135   3.1676   3.1747   3.1757
     3.2238   3.2252   3.2328   3.2334   3.2825   3.3523   3.3540   3.3539
     3.3862   3.3874   3.4003

     occupation numbers 
     1.0000   1.0000   1.0000   1.0000   1.0000   1.0000   1.0000   1.0000
     1.0000   1.0000   1.0000   1.0000   1.0000   1.0000   1.0000   1.0000
     1.0000   1.0000   1.0000   1.0000   1.0000   1.0000   1.0000   1.0000
     1.0000   1.0000   1.0000   1.0000   1.0000   1.0000   1.0000   1.0000
     1.0000   1.0000   1.0000   1.0000   1.0000   1.0000   1.0000   1.0000
     1.0000   1.0000   1.0000   1.0000   1.0000   1.0000   1.0000   1.0000
     1.0000   1.0000   1.0000   1.0000   1.0000   1.0000   1.0000   1.0000
     1.0000   1.0000   1.0000   1.0000   1.0000   1.0000   1.0000   1.0000
     1.0000   1.0000   1.0000   1.0000   1.0000   1.0000   1.0000   1.0000
     1.0000   1.0000   1.0000   1.0000   1.0000   1.0000   1.0000   1.0000
     1.0000   1.0000   1.0000   1.0000   1.0000   1.0000   1.0000   1.0000
     1.0000   1.0000   1.0000   1.0000   1.0000   1.0000   1.0000   1.0000
     1.0000   1.0000   1.0000   1.0000   1.0000   1.0000   1.0000   1.0000
     1.0000   1.0000   1.0000   1.0000   1.0000   1.0000   1.0000   1.0000
     1.0000   1.0000   1.0000   1.0000   1.0000   1.0000   1.0000   1.0000
     1.0000   1.0000   1.0000   1.0000   1.0000   1.0000   1.0000   1.0000
     1.0000   1.0000   1.0000   1.0000   1.0000   1.0000   1.0000   1.0000
     1.0000   1.0000   1.0000   1.0000   1.0000   1.0000   1.0000   1.0000
     1.0000   1.0000   1.0000   1.0000   1.0000   1.0000   1.0000   1.0000
     1.0000   1.0000   1.0000   1.0000   1.0000   1.0000   1.0000   1.0000
     1.0000   1.0000   1.0000   1.0000   1.0000   1.0000   1.0000   1.0000
[...]
     atom   16 type  1   force =     0.00004202    0.00001944   -0.00004561
     atom   17 type  1   force =     0.00003615   -0.00001790    0.00004507
     atom   18 type  1   force =     0.00001300   -0.00004398    0.00002424
     atom   19 type  1   force =     0.00003356   -0.00003950    0.00000320
     atom   20 type  1   force =     0.00000838   -0.00003273   -0.00000509
     atom   21 type  1   force =     0.00003062   -0.00003429    0.00003650
     atom   22 type  1   force =     0.00003169   -0.00003029   -0.00003359
     atom   23 type  1   force =     0.00002932   -0.00001279   -0.00004761
     atom   24 type  1   force =     0.00002068   -0.00003891   -0.00002382
     atom   25 type  1   force =     0.00003412   -0.00003974    0.00000967
     atom   26 type  1   force =     0.00002754    0.00003442    0.00002924
     atom   27 type  1   force =     0.00000605    0.00006088    0.00003863
     atom   28 type  1   force =     0.00001935    0.00004057    0.00004748
     atom   29 type  1   force =     0.00001736    0.00003110   -0.00000477
     atom   30 type  1   force =    -0.00000483    0.00000524   -0.00001662
     atom   31 type  1   force =    -0.00000761    0.00004957   -0.00002195
     atom   32 type  1   force =    -0.00002047    0.00001356   -0.00000551
     atom   33 type  1   force =     0.00003235    0.00002470   -0.00003395
     atom   34 type  1   force =     0.00005311    0.00004815   -0.00003636
     atom   35 type  1   force =     0.00001069    0.00004556   -0.00004124
     atom   36 type  1   force =    -0.00000597    0.00002346   -0.00002145
     atom   37 type  1   force =     0.00001324    0.00004373   -0.00003555
     atom   38 type  1   force =     0.00003043    0.00002777    0.00006304
     atom   39 type  1   force =     0.00001717   -0.00002276    0.00003427
     atom   40 type  1   force =    -0.00000095   -0.00000515    0.00003533
     atom   41 type  1   force =     0.00000948   -0.00001117    0.00005273
     atom   42 type  1   force =    -0.00000102   -0.00001586   -0.00003510
     atom   43 type  1   force =    -0.00002073   -0.00001577   -0.00001990
     atom   44 type  1   force =    -0.00000232   -0.00001191   -0.00002066
     atom   45 type  1   force =    -0.00001754   -0.00000790    0.00000035
     atom   46 type  1   force =    -0.00001875   -0.00000176   -0.00002249
     atom   47 type  1   force =     0.00000483   -0.00000148   -0.00004127
     atom   48 type  1   force =    -0.00000047    0.00002118   -0.00004220
     atom   49 type  1   force =    -0.00000812    0.00000213   -0.00000043
     atom   50 type  1   force =     0.00003527    0.00004217   -0.00004033
     atom   51 type  1   force =     0.00000361    0.00001182   -0.00005467
     atom   52 type  1   force =     0.00002968   -0.00001633    0.00004324
     atom   53 type  1   force =     0.00002805   -0.00002930    0.00004527
     atom   54 type  1   force =     0.00000220   -0.00002879    0.00004894
     atom   55 type  1   force =     0.00000453   -0.00002981    0.00003744
     atom   56 type  1   force =     0.00001333   -0.00002342    0.00002356
     atom   57 type  1   force =     0.00001219   -0.00002536    0.00000628
     atom   58 type  1   force =    -0.00000613   -0.00000332    0.00000231
     atom   59 type  1   force =     0.00000483   -0.00003176    0.00002951
     atom   60 type  1   force =    -0.00000155   -0.00001894   -0.00001568
     atom   61 type  1   force =     0.00002143   -0.00002569   -0.00003919
     atom   62 type  1   force =     0.00000191   -0.00001543   -0.00003890
     atom   63 type  1   force =     0.00001119   -0.00002789   -0.00001854
     atom   64 type  1   force =     0.00002078   -0.00001595   -0.00004626
     atom   65 type  1   force =     0.00000568   -0.00002869   -0.00004084
     atom   66 type  1   force =     0.00000285   -0.00003519    0.00003788
     atom   67 type  1   force =     0.00002328   -0.00002909    0.00003360
     atom   68 type  1   force =     0.00001046   -0.00004676    0.00000811
     atom   69 type  1   force =     0.00002225   -0.00003563   -0.00002008
     atom   70 type  1   force =     0.00000426   -0.00003416   -0.00003298
     atom   71 type  1   force =    -0.00002898    0.00003291    0.00003979
     atom   72 type  1   force =    -0.00002318    0.00003500    0.00001183
     atom   73 type  1   force =    -0.00001973    0.00002122   -0.00001031
     atom   74 type  1   force =    -0.00003094    0.00003112   -0.00000813
     atom   75 type  1   force =    -0.00003493    0.00003252    0.00001764
     atom   76 type  1   force =    -0.00002463    0.00003632   -0.00003734
     atom   77 type  1   force =    -0.00001690    0.00004334   -0.00003959
     atom   78 type  1   force =    -0.00002977    0.00003245   -0.00003119
     atom   79 type  1   force =    -0.00002252    0.00001370    0.00005001
     atom   80 type  1   force =    -0.00002282   -0.00001265    0.00004428
     atom   81 type  1   force =    -0.00003332    0.00001615    0.00003284
     atom   82 type  1   force =    -0.00002993   -0.00001063    0.00003825
     atom   83 type  1   force =    -0.00001473    0.00000549    0.00000170
     atom   84 type  1   force =     0.00000402    0.00001207   -0.00000030
     atom   85 type  1   force =    -0.00001889    0.00001851   -0.00000292
     atom   86 type  1   force =    -0.00002259    0.00000371    0.00001685
     atom   87 type  1   force =    -0.00001323    0.00001286   -0.00000728
     atom   88 type  1   force =    -0.00001265    0.00001435   -0.00003659
     atom   89 type  1   force =    -0.00002648    0.00003372   -0.00004173
     atom   90 type  1   force =    -0.00001675    0.00001483   -0.00001409
     atom   91 type  1   force =    -0.00001632    0.00003334   -0.00004489
     atom   92 type  1   force =    -0.00002686    0.00001269   -0.00004393
     atom   93 type  1   force =    -0.00001965   -0.00002589    0.00004397
     atom   94 type  1   force =    -0.00001690   -0.00002925    0.00004551
     atom   95 type  1   force =    -0.00002910   -0.00002081    0.00004294
     atom   96 type  1   force =    -0.00000668   -0.00001008    0.00001920
     atom   97 type  1   force =    -0.00000847   -0.00003051    0.00000860
     atom   98 type  1   force =    -0.00002276   -0.00000285    0.00000957
     atom   99 type  1   force =    -0.00003182   -0.00003399    0.00003873
     atom  100 type  1   force =    -0.00000064    0.00000334   -0.00001118
     atom  101 type  1   force =    -0.00001538   -0.00003192   -0.00004088
     atom  102 type  1   force =    -0.00003215   -0.00001651   -0.00004388
     atom  103 type  1   force =    -0.00003294   -0.00003312   -0.00002350
     atom  104 type  1   force =    -0.00001610   -0.00001419   -0.00004041
     atom  105 type  1   force =    -0.00001383   -0.00003796    0.00003240
     atom  106 type  1   force =    -0.00003274   -0.00004327    0.00000861
     atom  107 type  1   force =    -0.00001548   -0.00003963   -0.00001980
     atom  108 type  1   force =    -0.00002937    0.00003175   -0.00000493
     atom  109 type  1   force =    -0.00003286   -0.00000173    0.00003987
     atom  110 type  1   force =    -0.00003034    0.00002406    0.00002095
     atom  111 type  1   force =    -0.00004005    0.00001134    0.00000457
     atom  112 type  1   force =    -0.00002855    0.00002939   -0.00002618
     atom  113 type  1   force =    -0.00003338    0.00001145   -0.00003899
     atom  114 type  1   force =    -0.00003354   -0.00001722    0.00003278
     atom  115 type  1   force =    -0.00004257   -0.00003454    0.00000640
     atom  116 type  1   force =    -0.00003957   -0.00001426   -0.00002433
     atom  117 type  2   force =     0.00000167    0.00000021    0.00000070

     Total force =     0.004510     Total SCF correction =     0.000540
     SCF correction compared to forces is large: reduce conv_thr to get better values
     Energy error            =      3.3E-05 Ry
     Gradient error          =      9.2E-04 Ry/Bohr

     bfgs converged in  13 scf cycles and  12 bfgs steps
     (criteria: energy <  1.0E-04 Ry, force <  1.0E-03 Ry/Bohr)

     End of BFGS Geometry Optimization

     Final energy             =  -24449.0084129610 Ry

     File ./out/calc.bfgs deleted, as requested
Begin final coordinates

ATOMIC_POSITIONS (angstrom)
Pt              -5.7840616119       -3.8503359038        0.0252502361
Pt              -3.8224865990       -5.7980148192        0.0102081171
Pt              -4.1189543666       -4.1430559161       -2.2013985309
Pt              -4.0564430112       -4.0591982240        2.1294942093
Pt              -5.7952607398        0.0131303196       -3.8521326129
Pt              -4.0378321269       -2.1104709373       -4.0679945654
Pt              -3.8336832864        0.0127072646       -5.7946336707
Pt              -5.8684871358       -1.9526370832       -2.0058009914
Pt              -5.9204301395       -0.0094277273       -0.0121913970
Pt              -3.8955813189       -1.9818682951       -0.0213771030
Pt              -3.8931036069       -0.0020712033       -1.9734699572
Pt              -5.8298382015       -1.9498998325        1.9643208841
Pt              -5.7905614142        0.0074710425        3.8474454958
Pt              -4.0476607143       -2.1249417613        4.0529122019
Pt              -3.8838701047       -0.0065349449        1.9649730948
Pt              -3.8374416714        0.0001331065        5.7905537684
Pt              -4.0431781163        2.1209192613       -4.0426296353
Pt              -5.8381069771        1.9549284062       -1.9516916431
Pt              -5.7876575732        3.8417447566       -0.0008986570
Pt              -3.8797477493        1.9636882321       -0.0041828094
Pt              -4.0492449552        4.0525038623       -2.1226766601
Pt              -5.8330189182        1.9444883870        1.9456634263
Pt              -4.0516094501        2.1223231325        4.0488031337
Pt              -4.0495110513        4.0496286266        2.1194436819
Pt              -3.8404988648        5.7909877280       -0.0005873988
Pt              -2.1236311591       -4.0457940725       -4.0517097525
Pt              -0.0011894720       -5.7858115945       -3.8391471195
Pt               0.0045802513       -3.8362138990       -5.7903885231
Pt              -1.9653577033       -5.8294151449       -1.9585439425
Pt              -1.9824079823       -3.8772785599       -0.0078368369
Pt              -0.0057603062       -5.9091600438       -0.0035385532
Pt               0.0009566949       -3.8791768914       -1.9675610054
Pt              -1.9483411600       -5.8249753762        1.9593342922
Pt              -2.1181342000       -4.0487818853        4.0602333705
Pt               0.0032466591       -5.7908673524        3.8452844268
Pt               0.0031844090       -3.8762938233        1.9701664932
Pt               0.0067701435       -3.8369940036        5.7923813754
Pt              -1.9448722088       -1.9477055167       -5.8442892720
Pt              -1.9698356212       -0.0076436159       -3.8664742573
Pt              -0.0077386076       -1.9696591326       -3.8681783495
Pt              -0.0009028579       -0.0010083755       -5.9136482705
Pt              -2.0580378630       -2.0535509489       -2.0288018092
Pt              -1.9720628939       -0.0137401478       -0.0066425939
Pt              -0.0078001901       -1.9672103999       -0.0040341260
Pt               0.0010378002       -0.0011698146       -1.9569015978
Pt              -2.0385335198       -2.0359091396        2.0253947538
Pt              -1.9710578328       -0.0028542179        3.8734414397
Pt              -0.0012354538       -1.9710309423        3.8765462899
Pt              -0.0040945117       -0.0033737832        1.9599431143
Pt              -1.9523190572       -1.9520859090        5.8356602324
Pt               0.0005340129       -0.0007980646        5.9137105259
Pt              -1.9460304297        1.9489565686       -5.8321047582
Pt              -2.1206802010        4.0510589027       -4.0464695319
Pt              -0.0026119063        1.9655824395       -3.8758065075
Pt              -0.0003925476        3.8421589842       -5.7890450610
Pt              -2.0278163145        2.0281567601       -2.0251341030
Pt              -1.9700161126        3.8761361151       -0.0017054471
Pt              -0.0018234805        1.9598488305        0.0004560260
Pt               0.0014990992        3.8793373683       -1.9712649332
Pt              -2.0351585748        2.0239896786        2.0273485062
Pt              -2.1244816416        4.0486231977        4.0484861593
Pt              -0.0016511787        1.9682872197        3.8762677880
Pt              -0.0027017039        3.8761702274        1.9681429492
Pt              -1.9500122747        1.9496026015        5.8341253070
Pt              -0.0009012248        3.8418215455        5.7888512748
Pt               0.0021650561        5.7921643693       -3.8417825137
Pt              -1.9491526353        5.8375434458       -1.9504015502
Pt               0.0012617774        5.9194253325       -0.0001838993
Pt              -1.9494585661        5.8367512117        1.9478729884
Pt              -0.0011066053        5.7878320354        3.8403460756
Pt               2.1209600611       -4.0460131339       -4.0481422509
Pt               1.9529726124       -5.8381517642       -1.9508789947
Pt               1.9688576408       -3.8782849585       -0.0005826516
Pt               3.8424091343       -5.7895037222       -0.0008979210
Pt               4.0499938158       -4.0484976593       -2.1223907183
Pt               1.9497203534       -5.8364144304        1.9512391555
Pt               2.1240067384       -4.0503523949        4.0526115710
Pt               4.0481240159       -4.0502928722        2.1217568090
Pt               1.9503801064       -1.9490871614       -5.8347720775
Pt               1.9676359616       -0.0011452681       -3.8767090461
Pt               4.0509785736       -2.1210618945       -4.0499047965
Pt               3.8407452718        0.0014574398       -5.7891202949
Pt               2.0306011661       -2.0285646762       -2.0295177058
Pt               1.9625378873       -0.0005366673        0.0025715524
Pt               3.8779348419       -1.9693281343        0.0002589161
Pt               3.8779803116        0.0007767880       -1.9694647626
Pt               2.0279160799       -2.0309672052        2.0303951472
Pt               1.9682870515       -0.0009367495        3.8770363598
Pt               4.0506831838       -2.1236859231        4.0498794451
Pt               3.8778382010       -0.0015499764        1.9704112744
Pt               1.9540920072       -1.9517318988        5.8377864533
Pt               3.8416774524        0.0008095812        5.7890989885
Pt               1.9494688175        1.9500075431       -5.8349307584
Pt               2.1222825765        4.0515064996       -4.0518777947
Pt               4.0514340191        2.1236849271       -4.0502709326
Pt               2.0323531973        2.0332193410       -2.0324927133
Pt               1.9699613757        3.8790605390        0.0006153660
Pt               3.8776356525        1.9697119164        0.0001318672
Pt               4.0502855008        4.0522004216       -2.1244702699
Pt               2.0297309779        2.0305745941        2.0298230176
Pt               2.1217252965        4.0488027860        4.0485080131
Pt               4.0485841332        2.1217481745        4.0496745024
Pt               4.0502561108        4.0507421624        2.1226358814
Pt               1.9491083373        1.9497810886        5.8367860670
Pt               1.9506452461        5.8384595133       -1.9500868333
Pt               3.8423372095        5.7907870722       -0.0010950580
Pt               1.9501108314        5.8363589916        1.9497906456
Pt               5.7898558763       -3.8416998339        0.0009557957
Pt               5.7908300816        0.0005502921       -3.8407653904
Pt               5.8373004728       -1.9504027955       -1.9495605040
Pt               5.9176527390        0.0000571006        0.0006497790
Pt               5.8374744620       -1.9512815856        1.9503672211
Pt               5.7898625714       -0.0012094210        3.8422305751
Pt               5.8362165660        1.9508919230       -1.9496204844
Pt               5.7873926018        3.8439843540        0.0006461877
Pt               5.8370336050        1.9494112321        1.9496278458
H               -5.9389700128       -3.8468789905       -1.8714819559
End final coordinates



     Writing all to output data dir ./out/calc.save/ :
     XML data file, charge density, pseudopotentials, collected wavefunctions
 
     init_run     :     97.35s CPU    101.82s WALL (       1 calls)
     electrons    : 568861.97s CPU 575977.87s WALL (      13 calls)
     update_pot   :     90.45s CPU    100.98s WALL (      12 calls)
     forces       :    589.84s CPU    615.45s WALL (      13 calls)

     Called by init_run:
     wfcinit      :     75.03s CPU     77.93s WALL (       1 calls)
     wfcinit:atom :      0.33s CPU      0.45s WALL (       2 calls)
     wfcinit:wfcr :     72.87s CPU     75.42s WALL (       2 calls)
     potinit      :      8.71s CPU      9.73s WALL (       1 calls)
     hinit0       :      5.19s CPU      5.27s WALL (       1 calls)

     Called by electrons:
     c_bands      : 560488.39s CPU 567049.81s WALL (     182 calls)
     sum_band     :   5900.82s CPU   6127.09s WALL (     182 calls)
     v_of_rho     :   1308.18s CPU   1467.97s WALL (     185 calls)
     v_h          :     19.36s CPU     20.91s WALL (     185 calls)
     v_xc         :   1379.68s CPU   1549.54s WALL (     198 calls)
     newd         :    595.98s CPU    667.57s WALL (     185 calls)
     mix_rho      :    657.78s CPU    715.46s WALL (     182 calls)

     Called by c_bands:
     init_us_2    :    235.38s CPU    237.74s WALL (     756 calls)
     rcgdiagg     : 550106.03s CPU 556307.93s WALL (     406 calls)
     wfcrot       :  10259.62s CPU  10618.67s WALL (     362 calls)

     Called by sum_band:
     sum_band:wei :      0.60s CPU      0.60s WALL (     182 calls)
     sum_band:loo :   5062.54s CPU   5221.04s WALL (     182 calls)
     sum_band:buf :     40.42s CPU     40.88s WALL (     364 calls)
     sum_band:ini :    113.16s CPU    114.19s WALL (     364 calls)
     sum_band:cal :   1222.31s CPU   1229.25s WALL (     364 calls)
     sum_band:bec :      3.62s CPU      3.64s WALL (     364 calls)
     addusdens    :    811.92s CPU    876.90s WALL (     182 calls)
                                        0.00s GPU  (     182 calls)
     addusd:skk   :     32.42s CPU     56.73s WALL (     364 calls)
                                        0.00s GPU  (     364 calls)

     Called by *cgdiagg:
     h_psi        : 227649.01s CPU 231542.86s WALL ( 1376774 calls)
     s_psi        : 183833.90s CPU 185270.30s WALL ( 2753186 calls)

     Called by h_psi:
     h_psi:calbec :  96114.13s CPU  96921.72s WALL ( 1376774 calls)
     vloc_psi     :  38032.58s CPU  40404.09s WALL ( 1376774 calls)
     add_vuspsi   :  93377.40s CPU  94096.12s WALL ( 1376774 calls)
     hs_1psi      : 310688.51s CPU 314971.53s WALL ( 1376412 calls)
     s_1psi       : 187280.63s CPU 188789.06s WALL ( 1376412 calls)

     General routines
     calbec       : 192553.28s CPU 194158.93s WALL ( 2753654 calls)
     fft          :    784.55s CPU    900.69s WALL (   13421 calls)
     ffts         :    312.45s CPU    366.10s WALL (   20109 calls)
     fftw         :  21852.43s CPU  24158.44s WALL ( 3360484 calls)
     interpolate  :     31.76s CPU     36.31s WALL (     370 calls)
 
     Parallel routines
 
     PWSCF        :   6d14h15m CPU   6d16h17m WALL

 
   This run was terminated on:   8:48:24  21May2025            

=------------------------------------------------------------------------------=
   JOB DONE.
=------------------------------------------------------------------------------=
