
     Program PWSCF v.7.3.1 starts on 28Apr2025 at 11: 1:23 

     This program is part of the open-source Quantum ESPRESSO suite
     for quantum simulation of materials; please cite
         "P. Giannozzi et al., J. Phys.:Condens. Matter 21 395502 (2009);
         "P. Giannozzi et al., J. Phys.:Condens. Matter 29 465901 (2017);
         "P. Giannozzi et al., J. Chem. Phys. 152 154105 (2020);
          URL http://www.quantum-espresso.org", 
     in publications or presentations arising from this work. More details at
     http://www.quantum-espresso.org/quote

     Parallel version (MPI), running on    36 processors

     MPI processes distributed on     1 nodes
     160055 MiB available memory on the printing compute node when the environment starts
 
     Reading input from espresso.pwi
Warning: card   &CELL ignored
Warning: card      CELL_DOFREE = 'IBRAV' ignored
Warning: card / ignored

     Current dimensions of program PWSCF are:
     Max number of different atomic species (ntypx) = 10
     Max number of k-points (npk) =  40000
     Max angular momentum in pseudopotentials (lmaxx) =  4

     IMPORTANT: XC functional enforced from input :
     Exchange-correlation= RVV10
                           (   1   4  13   4  26   0   0)
     Any further DFT definition will be discarded
     Please, verify this is what you really want


     gamma-point specific algorithms are used
     Message from routine setup:
     using ibrav=0 with symmetry is DISCOURAGED, use correct ibrav instead
 
     R & G space division:  proc/nbgrp/npool/nimage =      36
     Subspace diagonalization in iterative solution of the eigenvalue problem:
     one sub-group per band group will be used
     scalapack distributed-memory algorithm (size of sub-group:  6*  6 procs)

 
     Parallelization info
     --------------------
     sticks:   dense  smooth     PW     G-vecs:    dense   smooth      PW
     Min        2366    1183    295               520102   183878   22972
     Max        2368    1188    298               520116   183884   22980
     Sum       85225   42641  10669             18723953  6619737  827137
 
     Using Slab Decomposition
 

     Title: 
     calc                                                                       


     bravais-lattice index     =            0
     lattice parameter (alat)  =      47.2432  a.u.
     unit-cell volume          =  105442.7265 (a.u.)^3
     number of atoms/cell      =          117
     number of atomic types    =            2
     number of electrons       =      1857.00
     number of Kohn-Sham states=         1115
     kinetic-energy cutoff     =      60.0000  Ry
     charge density cutoff     =     480.0000  Ry
     scf convergence threshold =      1.0E-06
     mixing beta               =       0.1000
     number of iterations used =            8  local-TF  mixing
     energy convergence thresh.=      1.0E-04
     force convergence thresh. =      1.0E-03
     Exchange-correlation= RVV10
                           (   1   4  13   4  26   0   0)
     nstep                     =        10000


     celldm(1)=  47.243153  celldm(2)=   0.000000  celldm(3)=   0.000000
     celldm(4)=   0.000000  celldm(5)=   0.000000  celldm(6)=   0.000000

     crystal axes: (cart. coord. in units of alat)
               a(1) = (   1.000000   0.000000   0.000000 )  
               a(2) = (   0.000000   1.000000   0.000000 )  
               a(3) = (   0.000000   0.000000   1.000000 )  

     reciprocal axes: (cart. coord. in units 2 pi/alat)
               b(1) = (  1.000000  0.000000  0.000000 )  
               b(2) = (  0.000000  1.000000  0.000000 )  
               b(3) = (  0.000000  0.000000  1.000000 )  


     PseudoPot. # 1 for Pt read from file:
     /home/james/work/espresso/SSSP_1.3.0_PBE_efficiency/pt_pbe_v1.4.uspp.F.UPF
     MD5 check sum: f09d6de1a584b5a045c4fc126da2d0c4
     Pseudo is Ultrasoft + core correction, Zval = 16.0
     Generated by new atomic code, or converted to UPF format
     Using radial grid of  985 points,  6 beta functions with: 
                l(1) =   0
                l(2) =   0
                l(3) =   1
                l(4) =   1
                l(5) =   2
                l(6) =   2
     Q(r) pseudized with  8 coefficients,  rinner =    1.300   1.300   1.300
                                                       1.300   1.300

     PseudoPot. # 2 for H  read from file:
     /home/james/work/espresso/SSSP_1.3.0_PBE_efficiency/H.pbe-rrkjus_psl.1.0.0.UPF
     MD5 check sum: f52b6d4d1c606e5624b1dc7b2218f220
     Pseudo is Ultrasoft, Zval =  1.0
     Generated using "atomic" code by A. Dal Corso  v.5.1
     Using radial grid of  929 points,  2 beta functions with: 
                l(1) =   0
                l(2) =   0
     Q(r) pseudized with 0 coefficients 


     atomic species   valence    mass     pseudopotential
     Pt               16.00   195.08400     Pt( 1.00)
     H                 1.00     1.00800     H ( 1.00)

     Starting magnetic structure 
     atomic species   magnetization
     Pt              0.010
     H               0.020

      2 Sym. Ops. (no inversion) found


                                    s                        frac. trans.

      isym =  1     identity                                     

 cryst.   s( 1) = (     1          0          0      )
                  (     0          1          0      )
                  (     0          0          1      )

 cart.    s( 1) = (  1.0000000  0.0000000  0.0000000 )
                  (  0.0000000  1.0000000  0.0000000 )
                  (  0.0000000  0.0000000  1.0000000 )


      isym =  2     inv. 180 deg rotation - cart. axis [0,1,-1]  

 cryst.   s( 2) = (     1          0          0      )
                  (     0          0          1      )
                  (     0          1          0      )

 cart.    s( 2) = (  1.0000000  0.0000000  0.0000000 )
                  (  0.0000000  0.0000000  1.0000000 )
                  (  0.0000000  1.0000000  0.0000000 )


   Cartesian axes

     site n.     atom                  positions (alat units)
         1        Pt     tau(   1) = (  -0.2317675  -0.1538076   0.0000000  )
         2        Pt     tau(   2) = (  -0.1538076  -0.2317675   0.0000000  )
         3        Pt     tau(   3) = (  -0.1617552  -0.1617552  -0.0847262  )
         4        Pt     tau(   4) = (  -0.1617552  -0.1617552   0.0847262  )
         5        Pt     tau(   5) = (  -0.2317675   0.0000000  -0.1538076  )
         6        Pt     tau(   6) = (  -0.1617552  -0.0847262  -0.1617552  )
         7        Pt     tau(   7) = (  -0.1538076   0.0000000  -0.2317675  )
         8        Pt     tau(   8) = (  -0.2338884  -0.0780549  -0.0780549  )
         9        Pt     tau(   9) = (  -0.2370085   0.0000000   0.0000000  )
        10        Pt     tau(  10) = (  -0.1554443  -0.0788784   0.0000000  )
        11        Pt     tau(  11) = (  -0.1554443   0.0000000  -0.0788784  )
        12        Pt     tau(  12) = (  -0.2338884  -0.0780549   0.0780549  )
        13        Pt     tau(  13) = (  -0.2317675   0.0000000   0.1538076  )
        14        Pt     tau(  14) = (  -0.1617552  -0.0847262   0.1617552  )
        15        Pt     tau(  15) = (  -0.1554443   0.0000000   0.0788784  )
        16        Pt     tau(  16) = (  -0.1538076   0.0000000   0.2317675  )
        17        Pt     tau(  17) = (  -0.1617552   0.0847262  -0.1617552  )
        18        Pt     tau(  18) = (  -0.2338884   0.0780549  -0.0780549  )
        19        Pt     tau(  19) = (  -0.2317675   0.1538076   0.0000000  )
        20        Pt     tau(  20) = (  -0.1554443   0.0788784   0.0000000  )
        21        Pt     tau(  21) = (  -0.1617552   0.1617552  -0.0847262  )
        22        Pt     tau(  22) = (  -0.2338884   0.0780549   0.0780549  )
        23        Pt     tau(  23) = (  -0.1617552   0.0847262   0.1617552  )
        24        Pt     tau(  24) = (  -0.1617552   0.1617552   0.0847262  )
        25        Pt     tau(  25) = (  -0.1538076   0.2317675   0.0000000  )
        26        Pt     tau(  26) = (  -0.0847262  -0.1617552  -0.1617552  )
        27        Pt     tau(  27) = (   0.0000000  -0.2317675  -0.1538076  )
        28        Pt     tau(  28) = (   0.0000000  -0.1538076  -0.2317675  )
        29        Pt     tau(  29) = (  -0.0780549  -0.2338884  -0.0780549  )
        30        Pt     tau(  30) = (  -0.0788784  -0.1554443   0.0000000  )
        31        Pt     tau(  31) = (   0.0000000  -0.2370085   0.0000000  )
        32        Pt     tau(  32) = (   0.0000000  -0.1554443  -0.0788784  )
        33        Pt     tau(  33) = (  -0.0780549  -0.2338884   0.0780549  )
        34        Pt     tau(  34) = (  -0.0847262  -0.1617552   0.1617552  )
        35        Pt     tau(  35) = (   0.0000000  -0.2317675   0.1538076  )
        36        Pt     tau(  36) = (   0.0000000  -0.1554443   0.0788784  )
        37        Pt     tau(  37) = (   0.0000000  -0.1538076   0.2317675  )
        38        Pt     tau(  38) = (  -0.0780549  -0.0780549  -0.2338884  )
        39        Pt     tau(  39) = (  -0.0788784   0.0000000  -0.1554443  )
        40        Pt     tau(  40) = (   0.0000000  -0.0788784  -0.1554443  )
        41        Pt     tau(  41) = (   0.0000000   0.0000000  -0.2370085  )
        42        Pt     tau(  42) = (  -0.0808740  -0.0808740  -0.0808740  )
        43        Pt     tau(  43) = (  -0.0786873   0.0000000   0.0000000  )
        44        Pt     tau(  44) = (   0.0000000  -0.0786873   0.0000000  )
        45        Pt     tau(  45) = (   0.0000000   0.0000000  -0.0786873  )
        46        Pt     tau(  46) = (  -0.0808740  -0.0808740   0.0808740  )
        47        Pt     tau(  47) = (  -0.0788784   0.0000000   0.1554443  )
        48        Pt     tau(  48) = (   0.0000000  -0.0788784   0.1554443  )
        49        Pt     tau(  49) = (   0.0000000   0.0000000   0.0786873  )
        50        Pt     tau(  50) = (  -0.0780549  -0.0780549   0.2338884  )
        51        Pt     tau(  51) = (   0.0000000   0.0000000   0.2370085  )
        52        Pt     tau(  52) = (  -0.0780549   0.0780549  -0.2338884  )
        53        Pt     tau(  53) = (  -0.0847262   0.1617552  -0.1617552  )
        54        Pt     tau(  54) = (   0.0000000   0.0788784  -0.1554443  )
        55        Pt     tau(  55) = (   0.0000000   0.1538076  -0.2317675  )
        56        Pt     tau(  56) = (  -0.0808740   0.0808740  -0.0808740  )
        57        Pt     tau(  57) = (  -0.0788784   0.1554443   0.0000000  )
        58        Pt     tau(  58) = (   0.0000000   0.0786873   0.0000000  )
        59        Pt     tau(  59) = (   0.0000000   0.1554443  -0.0788784  )
        60        Pt     tau(  60) = (  -0.0808740   0.0808740   0.0808740  )
        61        Pt     tau(  61) = (  -0.0847262   0.1617552   0.1617552  )
        62        Pt     tau(  62) = (   0.0000000   0.0788784   0.1554443  )
        63        Pt     tau(  63) = (   0.0000000   0.1554443   0.0788784  )
        64        Pt     tau(  64) = (  -0.0780549   0.0780549   0.2338884  )
        65        Pt     tau(  65) = (   0.0000000   0.1538076   0.2317675  )
        66        Pt     tau(  66) = (   0.0000000   0.2317675  -0.1538076  )
        67        Pt     tau(  67) = (  -0.0780549   0.2338884  -0.0780549  )
        68        Pt     tau(  68) = (   0.0000000   0.2370085   0.0000000  )
        69        Pt     tau(  69) = (  -0.0780549   0.2338884   0.0780549  )
        70        Pt     tau(  70) = (   0.0000000   0.2317675   0.1538076  )
        71        Pt     tau(  71) = (   0.0847262  -0.1617552  -0.1617552  )
        72        Pt     tau(  72) = (   0.0780549  -0.2338884  -0.0780549  )
        73        Pt     tau(  73) = (   0.0788784  -0.1554443   0.0000000  )
        74        Pt     tau(  74) = (   0.1538076  -0.2317675   0.0000000  )
        75        Pt     tau(  75) = (   0.1617552  -0.1617552  -0.0847262  )
        76        Pt     tau(  76) = (   0.0780549  -0.2338884   0.0780549  )
        77        Pt     tau(  77) = (   0.0847262  -0.1617552   0.1617552  )
        78        Pt     tau(  78) = (   0.1617552  -0.1617552   0.0847262  )
        79        Pt     tau(  79) = (   0.0780549  -0.0780549  -0.2338884  )
        80        Pt     tau(  80) = (   0.0788784   0.0000000  -0.1554443  )
        81        Pt     tau(  81) = (   0.1617552  -0.0847262  -0.1617552  )
        82        Pt     tau(  82) = (   0.1538076   0.0000000  -0.2317675  )
        83        Pt     tau(  83) = (   0.0808740  -0.0808740  -0.0808740  )
        84        Pt     tau(  84) = (   0.0786873   0.0000000   0.0000000  )
        85        Pt     tau(  85) = (   0.1554443  -0.0788784   0.0000000  )
        86        Pt     tau(  86) = (   0.1554443   0.0000000  -0.0788784  )
        87        Pt     tau(  87) = (   0.0808740  -0.0808740   0.0808740  )
        88        Pt     tau(  88) = (   0.0788784   0.0000000   0.1554443  )
        89        Pt     tau(  89) = (   0.1617552  -0.0847262   0.1617552  )
        90        Pt     tau(  90) = (   0.1554443   0.0000000   0.0788784  )
        91        Pt     tau(  91) = (   0.0780549  -0.0780549   0.2338884  )
        92        Pt     tau(  92) = (   0.1538076   0.0000000   0.2317675  )
        93        Pt     tau(  93) = (   0.0780549   0.0780549  -0.2338884  )
        94        Pt     tau(  94) = (   0.0847262   0.1617552  -0.1617552  )
        95        Pt     tau(  95) = (   0.1617552   0.0847262  -0.1617552  )
        96        Pt     tau(  96) = (   0.0808740   0.0808740  -0.0808740  )
        97        Pt     tau(  97) = (   0.0788784   0.1554443   0.0000000  )
        98        Pt     tau(  98) = (   0.1554443   0.0788784   0.0000000  )
        99        Pt     tau(  99) = (   0.1617552   0.1617552  -0.0847262  )
       100        Pt     tau( 100) = (   0.0808740   0.0808740   0.0808740  )
       101        Pt     tau( 101) = (   0.0847262   0.1617552   0.1617552  )
       102        Pt     tau( 102) = (   0.1617552   0.0847262   0.1617552  )
       103        Pt     tau( 103) = (   0.1617552   0.1617552   0.0847262  )
       104        Pt     tau( 104) = (   0.0780549   0.0780549   0.2338884  )
       105        Pt     tau( 105) = (   0.0780549   0.2338884  -0.0780549  )
       106        Pt     tau( 106) = (   0.1538076   0.2317675   0.0000000  )
       107        Pt     tau( 107) = (   0.0780549   0.2338884   0.0780549  )
       108        Pt     tau( 108) = (   0.2317675  -0.1538076   0.0000000  )
       109        Pt     tau( 109) = (   0.2317675   0.0000000  -0.1538076  )
       110        Pt     tau( 110) = (   0.2338884  -0.0780549  -0.0780549  )
       111        Pt     tau( 111) = (   0.2370085   0.0000000   0.0000000  )
       112        Pt     tau( 112) = (   0.2338884  -0.0780549   0.0780549  )
       113        Pt     tau( 113) = (   0.2317675   0.0000000   0.1538076  )
       114        Pt     tau( 114) = (   0.2338884   0.0780549  -0.0780549  )
       115        Pt     tau( 115) = (   0.2317675   0.1538076   0.0000000  )
       116        Pt     tau( 116) = (   0.2338884   0.0780549   0.0780549  )
       117        H      tau( 117) = (  -0.2964474  -0.1032578  -0.1032578  )

   Crystallographic axes

     site n.     atom                  positions (cryst. coord.)
         1        Pt     tau(   1) = ( -0.2317675 -0.1538076  0.0000000  )
         2        Pt     tau(   2) = ( -0.1538076 -0.2317675  0.0000000  )
         3        Pt     tau(   3) = ( -0.1617552 -0.1617552 -0.0847262  )
         4        Pt     tau(   4) = ( -0.1617552 -0.1617552  0.0847262  )
         5        Pt     tau(   5) = ( -0.2317675  0.0000000 -0.1538076  )
         6        Pt     tau(   6) = ( -0.1617552 -0.0847262 -0.1617552  )
         7        Pt     tau(   7) = ( -0.1538076  0.0000000 -0.2317675  )
         8        Pt     tau(   8) = ( -0.2338884 -0.0780549 -0.0780549  )
         9        Pt     tau(   9) = ( -0.2370085  0.0000000  0.0000000  )
        10        Pt     tau(  10) = ( -0.1554443 -0.0788784  0.0000000  )
        11        Pt     tau(  11) = ( -0.1554443  0.0000000 -0.0788784  )
        12        Pt     tau(  12) = ( -0.2338884 -0.0780549  0.0780549  )
        13        Pt     tau(  13) = ( -0.2317675  0.0000000  0.1538076  )
        14        Pt     tau(  14) = ( -0.1617552 -0.0847262  0.1617552  )
        15        Pt     tau(  15) = ( -0.1554443  0.0000000  0.0788784  )
        16        Pt     tau(  16) = ( -0.1538076  0.0000000  0.2317675  )
        17        Pt     tau(  17) = ( -0.1617552  0.0847262 -0.1617552  )
        18        Pt     tau(  18) = ( -0.2338884  0.0780549 -0.0780549  )
        19        Pt     tau(  19) = ( -0.2317675  0.1538076  0.0000000  )
        20        Pt     tau(  20) = ( -0.1554443  0.0788784  0.0000000  )
        21        Pt     tau(  21) = ( -0.1617552  0.1617552 -0.0847262  )
        22        Pt     tau(  22) = ( -0.2338884  0.0780549  0.0780549  )
        23        Pt     tau(  23) = ( -0.1617552  0.0847262  0.1617552  )
        24        Pt     tau(  24) = ( -0.1617552  0.1617552  0.0847262  )
        25        Pt     tau(  25) = ( -0.1538076  0.2317675  0.0000000  )
        26        Pt     tau(  26) = ( -0.0847262 -0.1617552 -0.1617552  )
        27        Pt     tau(  27) = (  0.0000000 -0.2317675 -0.1538076  )
        28        Pt     tau(  28) = (  0.0000000 -0.1538076 -0.2317675  )
        29        Pt     tau(  29) = ( -0.0780549 -0.2338884 -0.0780549  )
        30        Pt     tau(  30) = ( -0.0788784 -0.1554443  0.0000000  )
        31        Pt     tau(  31) = (  0.0000000 -0.2370085  0.0000000  )
        32        Pt     tau(  32) = (  0.0000000 -0.1554443 -0.0788784  )
        33        Pt     tau(  33) = ( -0.0780549 -0.2338884  0.0780549  )
        34        Pt     tau(  34) = ( -0.0847262 -0.1617552  0.1617552  )
        35        Pt     tau(  35) = (  0.0000000 -0.2317675  0.1538076  )
        36        Pt     tau(  36) = (  0.0000000 -0.1554443  0.0788784  )
        37        Pt     tau(  37) = (  0.0000000 -0.1538076  0.2317675  )
        38        Pt     tau(  38) = ( -0.0780549 -0.0780549 -0.2338884  )
        39        Pt     tau(  39) = ( -0.0788784  0.0000000 -0.1554443  )
        40        Pt     tau(  40) = (  0.0000000 -0.0788784 -0.1554443  )
        41        Pt     tau(  41) = (  0.0000000  0.0000000 -0.2370085  )
        42        Pt     tau(  42) = ( -0.0808740 -0.0808740 -0.0808740  )
        43        Pt     tau(  43) = ( -0.0786873  0.0000000  0.0000000  )
        44        Pt     tau(  44) = (  0.0000000 -0.0786873  0.0000000  )
        45        Pt     tau(  45) = (  0.0000000  0.0000000 -0.0786873  )
        46        Pt     tau(  46) = ( -0.0808740 -0.0808740  0.0808740  )
        47        Pt     tau(  47) = ( -0.0788784  0.0000000  0.1554443  )
        48        Pt     tau(  48) = (  0.0000000 -0.0788784  0.1554443  )
        49        Pt     tau(  49) = (  0.0000000  0.0000000  0.0786873  )
        50        Pt     tau(  50) = ( -0.0780549 -0.0780549  0.2338884  )
        51        Pt     tau(  51) = (  0.0000000  0.0000000  0.2370085  )
        52        Pt     tau(  52) = ( -0.0780549  0.0780549 -0.2338884  )
        53        Pt     tau(  53) = ( -0.0847262  0.1617552 -0.1617552  )
        54        Pt     tau(  54) = (  0.0000000  0.0788784 -0.1554443  )
        55        Pt     tau(  55) = (  0.0000000  0.1538076 -0.2317675  )
        56        Pt     tau(  56) = ( -0.0808740  0.0808740 -0.0808740  )
        57        Pt     tau(  57) = ( -0.0788784  0.1554443  0.0000000  )
        58        Pt     tau(  58) = (  0.0000000  0.0786873  0.0000000  )
        59        Pt     tau(  59) = (  0.0000000  0.1554443 -0.0788784  )
        60        Pt     tau(  60) = ( -0.0808740  0.0808740  0.0808740  )
        61        Pt     tau(  61) = ( -0.0847262  0.1617552  0.1617552  )
        62        Pt     tau(  62) = (  0.0000000  0.0788784  0.1554443  )
        63        Pt     tau(  63) = (  0.0000000  0.1554443  0.0788784  )
        64        Pt     tau(  64) = ( -0.0780549  0.0780549  0.2338884  )
        65        Pt     tau(  65) = (  0.0000000  0.1538076  0.2317675  )
        66        Pt     tau(  66) = (  0.0000000  0.2317675 -0.1538076  )
        67        Pt     tau(  67) = ( -0.0780549  0.2338884 -0.0780549  )
        68        Pt     tau(  68) = (  0.0000000  0.2370085  0.0000000  )
        69        Pt     tau(  69) = ( -0.0780549  0.2338884  0.0780549  )
        70        Pt     tau(  70) = (  0.0000000  0.2317675  0.1538076  )
        71        Pt     tau(  71) = (  0.0847262 -0.1617552 -0.1617552  )
        72        Pt     tau(  72) = (  0.0780549 -0.2338884 -0.0780549  )
        73        Pt     tau(  73) = (  0.0788784 -0.1554443  0.0000000  )
        74        Pt     tau(  74) = (  0.1538076 -0.2317675  0.0000000  )
        75        Pt     tau(  75) = (  0.1617552 -0.1617552 -0.0847262  )
        76        Pt     tau(  76) = (  0.0780549 -0.2338884  0.0780549  )
        77        Pt     tau(  77) = (  0.0847262 -0.1617552  0.1617552  )
        78        Pt     tau(  78) = (  0.1617552 -0.1617552  0.0847262  )
        79        Pt     tau(  79) = (  0.0780549 -0.0780549 -0.2338884  )
        80        Pt     tau(  80) = (  0.0788784  0.0000000 -0.1554443  )
        81        Pt     tau(  81) = (  0.1617552 -0.0847262 -0.1617552  )
        82        Pt     tau(  82) = (  0.1538076  0.0000000 -0.2317675  )
        83        Pt     tau(  83) = (  0.0808740 -0.0808740 -0.0808740  )
        84        Pt     tau(  84) = (  0.0786873  0.0000000  0.0000000  )
        85        Pt     tau(  85) = (  0.1554443 -0.0788784  0.0000000  )
        86        Pt     tau(  86) = (  0.1554443  0.0000000 -0.0788784  )
        87        Pt     tau(  87) = (  0.0808740 -0.0808740  0.0808740  )
        88        Pt     tau(  88) = (  0.0788784  0.0000000  0.1554443  )
        89        Pt     tau(  89) = (  0.1617552 -0.0847262  0.1617552  )
        90        Pt     tau(  90) = (  0.1554443  0.0000000  0.0788784  )
        91        Pt     tau(  91) = (  0.0780549 -0.0780549  0.2338884  )
        92        Pt     tau(  92) = (  0.1538076  0.0000000  0.2317675  )
        93        Pt     tau(  93) = (  0.0780549  0.0780549 -0.2338884  )
        94        Pt     tau(  94) = (  0.0847262  0.1617552 -0.1617552  )
        95        Pt     tau(  95) = (  0.1617552  0.0847262 -0.1617552  )
        96        Pt     tau(  96) = (  0.0808740  0.0808740 -0.0808740  )
        97        Pt     tau(  97) = (  0.0788784  0.1554443  0.0000000  )
        98        Pt     tau(  98) = (  0.1554443  0.0788784  0.0000000  )
        99        Pt     tau(  99) = (  0.1617552  0.1617552 -0.0847262  )
       100        Pt     tau( 100) = (  0.0808740  0.0808740  0.0808740  )
       101        Pt     tau( 101) = (  0.0847262  0.1617552  0.1617552  )
       102        Pt     tau( 102) = (  0.1617552  0.0847262  0.1617552  )
       103        Pt     tau( 103) = (  0.1617552  0.1617552  0.0847262  )
       104        Pt     tau( 104) = (  0.0780549  0.0780549  0.2338884  )
       105        Pt     tau( 105) = (  0.0780549  0.2338884 -0.0780549  )
       106        Pt     tau( 106) = (  0.1538076  0.2317675  0.0000000  )
       107        Pt     tau( 107) = (  0.0780549  0.2338884  0.0780549  )
       108        Pt     tau( 108) = (  0.2317675 -0.1538076  0.0000000  )
       109        Pt     tau( 109) = (  0.2317675  0.0000000 -0.1538076  )
       110        Pt     tau( 110) = (  0.2338884 -0.0780549 -0.0780549  )
       111        Pt     tau( 111) = (  0.2370085  0.0000000  0.0000000  )
       112        Pt     tau( 112) = (  0.2338884 -0.0780549  0.0780549  )
       113        Pt     tau( 113) = (  0.2317675  0.0000000  0.1538076  )
       114        Pt     tau( 114) = (  0.2338884  0.0780549 -0.0780549  )
       115        Pt     tau( 115) = (  0.2317675  0.1538076  0.0000000  )
       116        Pt     tau( 116) = (  0.2338884  0.0780549  0.0780549  )
       117        H      tau( 117) = ( -0.2964474 -0.1032578 -0.1032578  )

     number of k points=     1  Gaussian smearing, width (Ry)=  0.0100
                       cart. coord. in units 2pi/alat
        k(    1) = (   0.0000000   0.0000000   0.0000000), wk =   1.0000000

                       cryst. coord.
        k(    1) = (   0.0000000   0.0000000   0.0000000), wk =   1.0000000

     Dense  grid:  9361977 G-vectors     FFT dimensions: ( 360, 360, 360)

     Smooth grid:  3309869 G-vectors     FFT dimensions: ( 240, 240, 240)

     Dynamical RAM for                 wfc:     195.54 MB

     Dynamical RAM for     wfc (w. buffer):     586.61 MB

     Dynamical RAM for           str. fact:       7.94 MB

     Dynamical RAM for           local pot:       0.00 MB

     Dynamical RAM for          nlocal pot:     366.52 MB

     Dynamical RAM for                qrad:       3.52 MB

     Dynamical RAM for          rho,v,vnew:      83.14 MB

     Dynamical RAM for               rhoin:      27.71 MB

     Dynamical RAM for            rho*nmix:     126.98 MB

     Dynamical RAM for           G-vectors:      15.58 MB

     Dynamical RAM for          h,s,v(r/c):       0.78 MB

     Dynamical RAM for          <psi|beta>:      17.78 MB

     Dynamical RAM for      wfcinit/wfcrot:     419.54 MB

     Dynamical RAM for           addusdens:    1202.36 MB

     Dynamical RAM for          addusforce:    2115.94 MB

     Estimated static dynamical RAM per process >       1.14 GB

     Estimated max dynamical RAM per process >       3.33 GB

     Estimated total dynamical RAM >     119.71 GB

     Atomic positions and unit cell read from directory:
     ./out/calc.save/
     Atomic positions from file used, from input discarded
 
     Generating pointlists ...
     new r_m :   0.0281 (alat units)  1.3261 (a.u.) for type    1
     new r_m :   0.0281 (alat units)  1.3261 (a.u.) for type    2

     The initial density is read from file :
     ./out/calc.save/charge-density


     negative rho (up, down):  1.021E+01 1.020E+01


---------------------------------------------------------------------------------
Carrying out rVV10 run using the following parameters:
Nqs =      20    Nr_points =    1024   r_max =   100.000
b_value =  6.30000    beta =  0.00901
     q_mesh =  0.00010000  0.00030000  0.00058939  0.00100810
               0.00161396  0.00249058  0.00375900  0.00559430
               0.00824984  0.01209221  0.01765183  0.02569619
               0.03733578  0.05417739  0.07854596  0.11380545
               0.16482331  0.23864234  0.34545298  0.50000000

Gradients computed in Reciprocal space

---------------------------------------------------------------------------------




     ----------------------------------------------------------------

     Non-local correlation energy =             18.772677799937338

     ----------------------------------------------------------------

     Cannot read wfcs: file not found
     Starting wfcs are 1393 randomized atomic wfcs

     total cpu time spent up to now is      111.5 secs

     Self-consistent Calculation

     iteration #  1     ecut=    60.00 Ry     beta= 0.10
     CG style diagonalization

---- Real-time Memory Report at c_bands before calling an iterative solver
             0 MiB given to the printing process from OS
             0 MiB allocation reported by mallinfo(arena+hblkhd)
        114249 MiB available memory on the node where the printing process lives
------------------
     c_bands:  5 eigenvalues not converged
     ethr =  1.00E-05,  avg # of iterations = 14.7

     negative rho (up, down):  1.021E+01 1.020E+01


     ----------------------------------------------------------------

     Non-local correlation energy =             18.772706536415296

     ----------------------------------------------------------------


     total cpu time spent up to now is    11408.8 secs

     total energy              =  -24449.01008774 Ry
     estimated scf accuracy    <       0.39898872 Ry

     total magnetization       =     1.45 Bohr mag/cell
     absolute magnetization    =     1.57 Bohr mag/cell

     iteration #  2     ecut=    60.00 Ry     beta= 0.10
     CG style diagonalization

---- Real-time Memory Report at c_bands before calling an iterative solver
             0 MiB given to the printing process from OS
             0 MiB allocation reported by mallinfo(arena+hblkhd)
        111561 MiB available memory on the node where the printing process lives
------------------
     ethr =  2.15E-05,  avg # of iterations =  3.0

     negative rho (up, down):  1.021E+01 1.020E+01


     ----------------------------------------------------------------

     Non-local correlation energy =             18.772734509526032

     ----------------------------------------------------------------


     total cpu time spent up to now is    13315.4 secs

     total energy              =  -24449.00837039 Ry
     estimated scf accuracy    <       0.12044058 Ry

     total magnetization       =     1.42 Bohr mag/cell
     absolute magnetization    =     1.54 Bohr mag/cell

     iteration #  3     ecut=    60.00 Ry     beta= 0.10
     CG style diagonalization

---- Real-time Memory Report at c_bands before calling an iterative solver
             0 MiB given to the printing process from OS
             0 MiB allocation reported by mallinfo(arena+hblkhd)
        111274 MiB available memory on the node where the printing process lives
------------------
     ethr =  6.49E-06,  avg # of iterations =  3.0

     negative rho (up, down):  1.021E+01 1.020E+01


     ----------------------------------------------------------------

     Non-local correlation energy =             18.772732795665569

     ----------------------------------------------------------------


     total cpu time spent up to now is    15223.1 secs

     total energy              =  -24449.00969876 Ry
     estimated scf accuracy    <       0.00165390 Ry

     total magnetization       =     1.37 Bohr mag/cell
     absolute magnetization    =     1.48 Bohr mag/cell

     iteration #  4     ecut=    60.00 Ry     beta= 0.10
     CG style diagonalization

---- Real-time Memory Report at c_bands before calling an iterative solver
             0 MiB given to the printing process from OS
             0 MiB allocation reported by mallinfo(arena+hblkhd)
        111000 MiB available memory on the node where the printing process lives
------------------
     c_bands:  2 eigenvalues not converged
     ethr =  8.91E-08,  avg # of iterations =  3.0

     negative rho (up, down):  1.021E+01 1.020E+01


     ----------------------------------------------------------------

     Non-local correlation energy =             18.772729213080090

     ----------------------------------------------------------------


     total cpu time spent up to now is    17153.7 secs

     total energy              =  -24449.00967865 Ry
     estimated scf accuracy    <       0.00063231 Ry

     total magnetization       =     1.33 Bohr mag/cell
     absolute magnetization    =     1.44 Bohr mag/cell

     iteration #  5     ecut=    60.00 Ry     beta= 0.10
     CG style diagonalization

---- Real-time Memory Report at c_bands before calling an iterative solver
             0 MiB given to the printing process from OS
             0 MiB allocation reported by mallinfo(arena+hblkhd)
        110750 MiB available memory on the node where the printing process lives
------------------
     c_bands:  1 eigenvalues not converged
     ethr =  3.40E-08,  avg # of iterations =  3.0

     negative rho (up, down):  1.021E+01 1.020E+01


     ----------------------------------------------------------------

     Non-local correlation energy =             18.772717025777510

     ----------------------------------------------------------------


     total cpu time spent up to now is    19070.5 secs

     total energy              =  -24449.00959874 Ry
     estimated scf accuracy    <       0.00034027 Ry

     total magnetization       =     1.29 Bohr mag/cell
     absolute magnetization    =     1.40 Bohr mag/cell

     iteration #  6     ecut=    60.00 Ry     beta= 0.10
     CG style diagonalization

---- Real-time Memory Report at c_bands before calling an iterative solver
             0 MiB given to the printing process from OS
             0 MiB allocation reported by mallinfo(arena+hblkhd)
        110500 MiB available memory on the node where the printing process lives
------------------
     ethr =  1.83E-08,  avg # of iterations =  3.0

     negative rho (up, down):  1.021E+01 1.020E+01


     ----------------------------------------------------------------

     Non-local correlation energy =             18.772703201995494

     ----------------------------------------------------------------


     total cpu time spent up to now is    20989.8 secs

     total energy              =  -24449.00959561 Ry
     estimated scf accuracy    <       0.00009888 Ry

     total magnetization       =     1.21 Bohr mag/cell
     absolute magnetization    =     1.30 Bohr mag/cell

     iteration #  7     ecut=    60.00 Ry     beta= 0.10
     CG style diagonalization

---- Real-time Memory Report at c_bands before calling an iterative solver
             0 MiB given to the printing process from OS
             0 MiB allocation reported by mallinfo(arena+hblkhd)
        110237 MiB available memory on the node where the printing process lives
------------------
     ethr =  5.32E-09,  avg # of iterations =  3.5

     negative rho (up, down):  1.021E+01 1.020E+01


     ----------------------------------------------------------------

     Non-local correlation energy =             18.772703617271464

     ----------------------------------------------------------------


     total cpu time spent up to now is    23394.0 secs

     total energy              =  -24449.00962124 Ry
     estimated scf accuracy    <       0.00002767 Ry

     total magnetization       =     1.09 Bohr mag/cell
     absolute magnetization    =     1.18 Bohr mag/cell

     iteration #  8     ecut=    60.00 Ry     beta= 0.10
     CG style diagonalization

---- Real-time Memory Report at c_bands before calling an iterative solver
             0 MiB given to the printing process from OS
             0 MiB allocation reported by mallinfo(arena+hblkhd)
        109955 MiB available memory on the node where the printing process lives
------------------
     ethr =  1.49E-09,  avg # of iterations =  3.0

     negative rho (up, down):  1.021E+01 1.020E+01


     ----------------------------------------------------------------

     Non-local correlation energy =             18.772697193075366

     ----------------------------------------------------------------


     total cpu time spent up to now is    25301.3 secs

     total energy              =  -24449.00962785 Ry
     estimated scf accuracy    <       0.00001130 Ry

     total magnetization       =     1.09 Bohr mag/cell
     absolute magnetization    =     1.18 Bohr mag/cell

     iteration #  9     ecut=    60.00 Ry     beta= 0.10
     CG style diagonalization

---- Real-time Memory Report at c_bands before calling an iterative solver
             0 MiB given to the printing process from OS
             0 MiB allocation reported by mallinfo(arena+hblkhd)
        109701 MiB available memory on the node where the printing process lives
------------------
     ethr =  6.09E-10,  avg # of iterations =  3.0

     negative rho (up, down):  1.021E+01 1.020E+01


     ----------------------------------------------------------------

     Non-local correlation energy =             18.772693219475698

     ----------------------------------------------------------------


     total cpu time spent up to now is    27208.2 secs

     total energy              =  -24449.00963456 Ry
     estimated scf accuracy    <       0.00000892 Ry

     total magnetization       =     1.02 Bohr mag/cell
     absolute magnetization    =     1.10 Bohr mag/cell

     iteration # 10     ecut=    60.00 Ry     beta= 0.10
     CG style diagonalization

---- Real-time Memory Report at c_bands before calling an iterative solver
             0 MiB given to the printing process from OS
             0 MiB allocation reported by mallinfo(arena+hblkhd)
        109453 MiB available memory on the node where the printing process lives
------------------
     ethr =  4.80E-10,  avg # of iterations =  3.0

     negative rho (up, down):  1.021E+01 1.020E+01


     ----------------------------------------------------------------

     Non-local correlation energy =             18.772688421429216

     ----------------------------------------------------------------


     total cpu time spent up to now is    29114.8 secs

     total energy              =  -24449.00964106 Ry
     estimated scf accuracy    <       0.00000560 Ry

     total magnetization       =     0.96 Bohr mag/cell
     absolute magnetization    =     1.04 Bohr mag/cell

     iteration # 11     ecut=    60.00 Ry     beta= 0.10
     CG style diagonalization

---- Real-time Memory Report at c_bands before calling an iterative solver
             0 MiB given to the printing process from OS
             0 MiB allocation reported by mallinfo(arena+hblkhd)
        109444 MiB available memory on the node where the printing process lives
------------------
     ethr =  3.02E-10,  avg # of iterations =  3.0

     negative rho (up, down):  1.021E+01 1.020E+01


     ----------------------------------------------------------------

     Non-local correlation energy =             18.772683371608260

     ----------------------------------------------------------------


     total cpu time spent up to now is    31048.9 secs

     total energy              =  -24449.00964840 Ry
     estimated scf accuracy    <       0.00000400 Ry

     total magnetization       =     0.89 Bohr mag/cell
     absolute magnetization    =     0.96 Bohr mag/cell

     iteration # 12     ecut=    60.00 Ry     beta= 0.10
     CG style diagonalization

---- Real-time Memory Report at c_bands before calling an iterative solver
             0 MiB given to the printing process from OS
             0 MiB allocation reported by mallinfo(arena+hblkhd)
        109424 MiB available memory on the node where the printing process lives
------------------
     ethr =  2.16E-10,  avg # of iterations =  3.4

     negative rho (up, down):  1.020E+01 1.020E+01


     ----------------------------------------------------------------

     Non-local correlation energy =             18.772680702619432

     ----------------------------------------------------------------


     total cpu time spent up to now is    33363.8 secs

     total energy              =  -24449.00965513 Ry
     estimated scf accuracy    <       0.00000272 Ry

     total magnetization       =     0.78 Bohr mag/cell
     absolute magnetization    =     0.85 Bohr mag/cell

     iteration # 13     ecut=    60.00 Ry     beta= 0.10
     CG style diagonalization

---- Real-time Memory Report at c_bands before calling an iterative solver
             0 MiB given to the printing process from OS
             0 MiB allocation reported by mallinfo(arena+hblkhd)
        109424 MiB available memory on the node where the printing process lives
------------------
     ethr =  1.47E-10,  avg # of iterations =  3.1

     negative rho (up, down):  1.020E+01 1.020E+01


     ----------------------------------------------------------------

     Non-local correlation energy =             18.772677785885605

     ----------------------------------------------------------------


     total cpu time spent up to now is    35386.1 secs

     total energy              =  -24449.00965975 Ry
     estimated scf accuracy    <       0.00000232 Ry

     total magnetization       =     0.71 Bohr mag/cell
     absolute magnetization    =     0.76 Bohr mag/cell

     iteration # 14     ecut=    60.00 Ry     beta= 0.10
     CG style diagonalization

---- Real-time Memory Report at c_bands before calling an iterative solver
             0 MiB given to the printing process from OS
             0 MiB allocation reported by mallinfo(arena+hblkhd)
        109420 MiB available memory on the node where the printing process lives
------------------
     ethr =  1.25E-10,  avg # of iterations =  3.7

     negative rho (up, down):  1.020E+01 1.020E+01


     ----------------------------------------------------------------

     Non-local correlation energy =             18.772676959802034

     ----------------------------------------------------------------


     total cpu time spent up to now is    37912.8 secs

     total energy              =  -24449.00966687 Ry
     estimated scf accuracy    <       0.00000146 Ry

     total magnetization       =     0.55 Bohr mag/cell
     absolute magnetization    =     0.60 Bohr mag/cell

     iteration # 15     ecut=    60.00 Ry     beta= 0.10
     CG style diagonalization

---- Real-time Memory Report at c_bands before calling an iterative solver
             0 MiB given to the printing process from OS
             0 MiB allocation reported by mallinfo(arena+hblkhd)
        109441 MiB available memory on the node where the printing process lives
------------------
     ethr =  7.89E-11,  avg # of iterations =  3.0

     negative rho (up, down):  1.020E+01 1.020E+01


     ----------------------------------------------------------------

     Non-local correlation energy =             18.772672592555303

     ----------------------------------------------------------------


     total cpu time spent up to now is    39851.6 secs

     total energy              =  -24449.00966633 Ry
     estimated scf accuracy    <       0.00000117 Ry

     total magnetization       =     0.50 Bohr mag/cell
     absolute magnetization    =     0.54 Bohr mag/cell

     iteration # 16     ecut=    60.00 Ry     beta= 0.10
     CG style diagonalization

---- Real-time Memory Report at c_bands before calling an iterative solver
             0 MiB given to the printing process from OS
             0 MiB allocation reported by mallinfo(arena+hblkhd)
        109462 MiB available memory on the node where the printing process lives
------------------
     ethr =  6.31E-11,  avg # of iterations =  4.2

     negative rho (up, down):  1.020E+01 1.020E+01


     ----------------------------------------------------------------

     Non-local correlation energy =             18.772647334452696

     ----------------------------------------------------------------

 
     Magnetic moment per site  (integrated on atomic sphere of radius R)
     atom   1 (R=0.028)  charge=  8.9795  magn=  0.0019
     atom   2 (R=0.028)  charge=  8.9792  magn=  0.0020
     atom   3 (R=0.028)  charge=  8.9633  magn=  0.0010
     atom   4 (R=0.028)  charge=  8.9615  magn=  0.0014
     atom   5 (R=0.028)  charge=  8.9795  magn=  0.0018
     atom   6 (R=0.028)  charge=  8.9633  magn=  0.0010
     atom   7 (R=0.028)  charge=  8.9792  magn=  0.0019
     atom   8 (R=0.028)  charge=  8.9352  magn=  0.0004
     atom   9 (R=0.028)  charge=  8.9709  magn=  0.0007
     atom  10 (R=0.028)  charge=  8.9632  magn=  0.0017
     atom  11 (R=0.028)  charge=  8.9631  magn=  0.0017
     atom  12 (R=0.028)  charge=  8.9702  magn=  0.0010
     atom  13 (R=0.028)  charge=  8.9790  magn=  0.0022
     atom  14 (R=0.028)  charge=  8.9623  magn=  0.0014
     atom  15 (R=0.028)  charge=  8.9620  magn=  0.0020
     atom  16 (R=0.028)  charge=  8.9790  magn=  0.0024
     atom  17 (R=0.028)  charge=  8.9615  magn=  0.0013
     atom  18 (R=0.028)  charge=  8.9702  magn=  0.0010
     atom  19 (R=0.028)  charge=  8.9790  magn=  0.0022
     atom  20 (R=0.028)  charge=  8.9620  magn=  0.0020
     atom  21 (R=0.028)  charge=  8.9623  magn=  0.0013
     atom  22 (R=0.028)  charge=  8.9706  magn=  0.0009
     atom  23 (R=0.028)  charge=  8.9625  magn=  0.0013
     atom  24 (R=0.028)  charge=  8.9625  magn=  0.0013
     atom  25 (R=0.028)  charge=  8.9790  magn=  0.0023
     atom  26 (R=0.028)  charge=  8.9627  magn=  0.0010
     atom  27 (R=0.028)  charge=  8.9789  magn=  0.0018
     atom  28 (R=0.028)  charge=  8.9789  magn=  0.0018
     atom  29 (R=0.028)  charge=  8.9702  magn=  0.0009
     atom  30 (R=0.028)  charge=  8.9624  magn=  0.0018
     atom  31 (R=0.028)  charge=  8.9707  magn=  0.0007
     atom  32 (R=0.028)  charge=  8.9623  magn=  0.0016
     atom  33 (R=0.028)  charge=  8.9700  magn=  0.0011
     atom  34 (R=0.028)  charge=  8.9625  magn=  0.0014
     atom  35 (R=0.028)  charge=  8.9789  magn=  0.0022
     atom  36 (R=0.028)  charge=  8.9622  magn=  0.0021
     atom  37 (R=0.028)  charge=  8.9787  magn=  0.0027
     atom  38 (R=0.028)  charge=  8.9702  magn=  0.0009
     atom  39 (R=0.028)  charge=  8.9624  magn=  0.0018
     atom  40 (R=0.028)  charge=  8.9623  magn=  0.0016
     atom  41 (R=0.028)  charge=  8.9707  magn=  0.0007
     atom  42 (R=0.028)  charge=  8.9604  magn=  0.0017
     atom  43 (R=0.028)  charge=  8.9547  magn=  0.0008
     atom  44 (R=0.028)  charge=  8.9557  magn=  0.0007
     atom  45 (R=0.028)  charge=  8.9558  magn=  0.0007
     atom  46 (R=0.028)  charge=  8.9625  magn=  0.0027
     atom  47 (R=0.028)  charge=  8.9621  magn=  0.0023
     atom  48 (R=0.028)  charge=  8.9626  magn=  0.0033
     atom  49 (R=0.028)  charge=  8.9559  magn=  0.0010
     atom  50 (R=0.028)  charge=  8.9698  magn=  0.0013
     atom  51 (R=0.028)  charge=  8.9711  magn=  0.0009
     atom  52 (R=0.028)  charge=  8.9700  magn=  0.0010
     atom  53 (R=0.028)  charge=  8.9625  magn=  0.0014
     atom  54 (R=0.028)  charge=  8.9622  magn=  0.0020
     atom  55 (R=0.028)  charge=  8.9789  magn=  0.0021
     atom  56 (R=0.028)  charge=  8.9625  magn=  0.0027
     atom  57 (R=0.028)  charge=  8.9621  magn=  0.0023
     atom  58 (R=0.028)  charge=  8.9559  magn=  0.0010
     atom  59 (R=0.028)  charge=  8.9626  magn=  0.0032
     atom  60 (R=0.028)  charge=  8.9599  magn=  0.0022
     atom  61 (R=0.028)  charge=  8.9625  magn=  0.0013
     atom  62 (R=0.028)  charge=  8.9622  magn=  0.0022
     atom  63 (R=0.028)  charge=  8.9622  magn=  0.0022
     atom  64 (R=0.028)  charge=  8.9701  magn=  0.0012
     atom  65 (R=0.028)  charge=  8.9791  magn=  0.0024
     atom  66 (R=0.028)  charge=  8.9786  magn=  0.0027
     atom  67 (R=0.028)  charge=  8.9698  magn=  0.0013
     atom  68 (R=0.028)  charge=  8.9711  magn=  0.0009
     atom  69 (R=0.028)  charge=  8.9701  magn=  0.0012
     atom  70 (R=0.028)  charge=  8.9791  magn=  0.0023
     atom  71 (R=0.028)  charge=  8.9624  magn=  0.0011
     atom  72 (R=0.028)  charge=  8.9701  magn=  0.0009
     atom  73 (R=0.028)  charge=  8.9622  magn=  0.0018
     atom  74 (R=0.028)  charge=  8.9790  magn=  0.0020
     atom  75 (R=0.028)  charge=  8.9625  magn=  0.0011
     atom  76 (R=0.028)  charge=  8.9700  magn=  0.0011
     atom  77 (R=0.028)  charge=  8.9623  magn=  0.0013
     atom  78 (R=0.028)  charge=  8.9625  magn=  0.0013
     atom  79 (R=0.028)  charge=  8.9701  magn=  0.0009
     atom  80 (R=0.028)  charge=  8.9622  magn=  0.0017
     atom  81 (R=0.028)  charge=  8.9625  magn=  0.0011
     atom  82 (R=0.028)  charge=  8.9790  magn=  0.0020
     atom  83 (R=0.028)  charge=  8.9599  magn=  0.0018
     atom  84 (R=0.028)  charge=  8.9560  magn=  0.0008
     atom  85 (R=0.028)  charge=  8.9623  magn=  0.0018
     atom  86 (R=0.028)  charge=  8.9623  magn=  0.0018
     atom  87 (R=0.028)  charge=  8.9600  magn=  0.0023
     atom  88 (R=0.028)  charge=  8.9626  magn=  0.0026
     atom  89 (R=0.028)  charge=  8.9623  magn=  0.0014
     atom  90 (R=0.028)  charge=  8.9622  magn=  0.0021
     atom  91 (R=0.028)  charge=  8.9698  magn=  0.0017
     atom  92 (R=0.028)  charge=  8.9785  magn=  0.0027
     atom  93 (R=0.028)  charge=  8.9700  magn=  0.0011
     atom  94 (R=0.028)  charge=  8.9623  magn=  0.0013
     atom  95 (R=0.028)  charge=  8.9625  magn=  0.0013
     atom  96 (R=0.028)  charge=  8.9600  magn=  0.0023
     atom  97 (R=0.028)  charge=  8.9626  magn=  0.0026
     atom  98 (R=0.028)  charge=  8.9622  magn=  0.0021
     atom  99 (R=0.028)  charge=  8.9623  magn=  0.0014
     atom 100 (R=0.028)  charge=  8.9600  magn=  0.0023
     atom 101 (R=0.028)  charge=  8.9624  magn=  0.0014
     atom 102 (R=0.028)  charge=  8.9625  magn=  0.0014
     atom 103 (R=0.028)  charge=  8.9625  magn=  0.0014
     atom 104 (R=0.028)  charge=  8.9700  magn=  0.0013
     atom 105 (R=0.028)  charge=  8.9698  magn=  0.0016
     atom 106 (R=0.028)  charge=  8.9784  magn=  0.0027
     atom 107 (R=0.028)  charge=  8.9700  magn=  0.0013
     atom 108 (R=0.028)  charge=  8.9790  magn=  0.0020
     atom 109 (R=0.028)  charge=  8.9790  magn=  0.0020
     atom 110 (R=0.028)  charge=  8.9700  magn=  0.0008
     atom 111 (R=0.028)  charge=  8.9709  magn=  0.0008
     atom 112 (R=0.028)  charge=  8.9700  magn=  0.0011
     atom 113 (R=0.028)  charge=  8.9789  magn=  0.0023
     atom 114 (R=0.028)  charge=  8.9700  magn=  0.0011
     atom 115 (R=0.028)  charge=  8.9789  magn=  0.0023
     atom 116 (R=0.028)  charge=  8.9698  magn=  0.0012
     atom 117 (R=0.028)  charge=  0.7985  magn=  0.0000

     total cpu time spent up to now is    42813.6 secs

     End of self-consistent calculation

 ------ SPIN UP ------------


          k = 0.0000 0.0000 0.0000 (413569 PWs)   bands (ev):

   -55.5510 -55.4950 -55.4942 -55.4927 -55.4774 -55.4763 -55.4749 -55.4670
   -55.4663 -55.4647 -55.4574 -55.4528 -55.4178 -55.4162 -55.4133 -55.4126
   -55.4071 -55.4063 -55.3854 -55.3843 -55.3799 -55.3774 -55.3731 -55.3729
   -55.3700 -55.3687 -55.3633 -55.3607 -55.3564 -55.3343 -55.3337 -55.3289
   -55.3033 -55.3028 -55.3018 -55.3011 -55.2998 -55.2959 -55.2951 -55.2946
   -55.2940 -55.2883 -55.2871 -55.2755 -55.2743 -55.2641 -55.2627 -55.2610
   -55.2581 -55.2578 -55.2542 -55.2525 -55.2484 -55.2476 -55.2416 -55.2412
   -55.2394 -55.2354 -55.2264 -55.2262 -55.2223 -55.2213 -55.2198 -55.2186
   -55.2178 -55.2165 -55.2092 -55.2082 -55.2078 -55.1990 -55.1953 -55.1808
   -55.1791 -55.1765 -55.1722 -55.1718 -55.1708 -55.1701 -55.1652 -55.1648
   -55.1619 -55.1525 -55.1403 -55.1395 -55.1379 -55.1316 -55.1281 -55.1278
   -55.1269 -55.1258 -55.1137 -55.1092 -55.1031 -55.1022 -55.1014 -55.0978
   -55.0975 -55.0968 -55.0954 -55.0950 -55.0944 -55.0943 -55.0877 -55.0857
   -55.0843 -55.0809 -55.0790 -55.0778 -55.0758 -55.0746 -55.0700 -55.0687
   -55.0679 -55.0563 -54.9626 -54.9486 -54.9016 -54.9004 -54.8962 -54.8951
   -54.8948 -54.8931 -54.8916 -54.8888 -54.8712 -54.8438 -54.8434 -54.8423
   -54.8412 -54.8391 -54.8389 -54.8370 -54.8357 -54.8356 -54.8350 -54.8332
   -54.8327 -54.8290 -54.8288 -54.8203 -54.7822 -54.7781 -54.7756 -54.7729
   -54.7717 -54.7687 -54.7670 -54.7617 -54.7484 -54.7337 -54.7307 -54.7301
   -54.7292 -54.7270 -54.7247 -54.7243 -54.7232 -54.7219 -54.7209 -54.7195
   -54.7189 -54.7185 -54.7170 -54.7144 -54.7106 -54.7051 -54.7016 -54.7013
   -54.7002 -54.6996 -54.6986 -54.6964 -54.6964 -54.6956 -54.6918 -54.6917
   -54.6899 -54.6888 -54.6878 -54.6840 -54.6632 -54.6621 -54.6609 -54.6609
   -54.6593 -54.6541 -54.6530 -54.6521 -54.6512 -54.6510 -54.6510 -54.6465
   -54.6432 -54.6419 -54.6407 -54.6387 -54.6374 -54.6353 -54.6328 -54.6297
   -54.5417 -54.5399 -54.5284 -54.5264 -54.5261 -54.5242 -54.5233 -54.5198
   -54.5155 -54.5143 -54.5137 -54.4916 -54.4804 -54.4794 -54.4783 -54.4765
   -54.4765 -54.4762 -54.4730 -54.4718 -54.4697 -54.4696 -54.4690 -54.4677
   -54.4671 -54.4666 -54.4662 -54.4657 -54.4641 -54.4625 -54.4554 -54.4544
   -54.4533 -54.4529 -54.4498 -54.4497 -54.4486 -54.4478 -54.4477 -54.4476
   -54.4466 -54.4332 -54.4327 -54.4319 -54.4293 -54.4293 -54.4284 -54.4261
   -54.4239 -54.4236 -54.4231 -54.4222 -54.4208 -54.4133 -54.4114 -54.4113
   -54.4103 -54.4090 -54.4089 -54.3806 -54.3735 -54.3732 -54.3713 -54.3704
   -54.3691 -54.3634 -54.3634 -54.3616 -54.3615 -54.3613 -54.3599 -54.3596
   -54.3591 -54.3551 -54.3549 -54.3540 -54.3487 -54.3464 -54.3462 -54.3427
   -54.3420 -54.3389 -54.3371 -54.3369 -54.3339 -54.3329 -54.3324 -54.3297
   -54.3295 -54.3259 -54.3258 -54.3253 -54.3243 -54.3239 -54.3220 -54.3214
   -54.3212 -54.3208 -54.3205 -54.3201 -54.3145 -54.3135 -54.3132 -54.3103
   -54.3100 -54.3079 -54.3072 -54.3068 -54.3064 -54.3062 -54.3048 -54.3001
   -54.3000 -54.2998 -54.2992 -54.2988 -54.2986 -54.2981 -54.2978 -54.2978
   -54.2974 -54.2972 -54.2967 -54.2967 -54.2501 -54.2490 -54.2485 -54.2480
   -54.2473 -54.2472 -54.2464 -54.2459 -54.2458 -54.2457 -54.2441 -54.2436
   -54.2152 -54.2152 -54.2151 -54.2151 -54.2145 -54.2145 -54.2137 -54.2125
   -54.2123 -54.2120 -54.2113 -54.2112 -11.5067 -10.6663 -10.6637 -10.6629
    -9.7995  -9.7928  -9.7917  -9.7697  -9.7641  -9.5552  -9.1885  -9.1825
    -9.1824  -9.0910  -8.9685  -8.9595  -8.9569  -8.7744  -8.7572  -8.7521
    -8.7293  -8.7156  -8.7153  -8.6583  -8.5927  -8.5898  -8.5891  -8.5869
    -8.5830  -8.5821  -8.5724  -8.5663  -8.5567  -8.5543  -8.3871  -8.3869
    -8.3861  -8.3380  -8.3372  -8.3309  -8.3237  -8.3231  -8.2938  -8.2920
    -8.2891  -8.2612  -8.2527  -8.2526  -8.1227  -8.1206  -8.0659  -8.0616
    -8.0611  -7.9961  -7.9769  -7.9709  -7.9272  -7.9129  -7.9118  -7.9108
    -7.9104  -7.9073  -7.8741  -7.8530  -7.8367  -7.8353  -7.8287  -7.8282
    -7.8247  -7.7422  -7.7387  -7.7161  -7.6996  -7.6977  -7.6749  -7.6102
    -7.5824  -7.5778  -7.5763  -7.5756  -7.5730  -7.5721  -7.5721  -7.5709
    -7.5695  -7.5664  -7.5647  -7.5642  -7.5451  -7.5443  -7.5427  -7.4825
    -7.4695  -7.4588  -7.4582  -7.4578  -7.4568  -7.4565  -7.4526  -7.4455
    -7.4376  -7.4357  -7.4348  -7.4144  -7.4045  -7.3911  -7.3904  -7.3215
    -7.3092  -7.3089  -7.2463  -7.2318  -7.2290  -7.1893  -7.1875  -7.1854
    -7.1113  -7.1036  -7.1028  -7.0673  -7.0662  -7.0649  -6.9981  -6.9956
    -6.9939  -6.9742  -6.9536  -6.9533  -6.9166  -6.9150  -6.9125  -6.9079
    -6.9047  -6.8999  -6.8011  -6.7977  -6.7953  -6.7540  -6.7055  -6.6670
    -6.6477  -6.6402  -6.5904  -6.5897  -6.5862  -6.5829  -6.5809  -6.5712
    -6.5664  -6.5663  -6.5449  -6.5300  -6.5287  -6.5264  -6.5233  -6.5194
    -6.5070  -6.4694  -6.4683  -6.4594  -6.4562  -6.4560  -6.4538  -6.4521
    -6.4518  -6.4505  -6.4499  -6.4486  -6.4484  -6.4474  -6.3737  -6.3466
    -6.3464  -6.3394  -6.3369  -6.3341  -6.3261  -6.3123  -6.2965  -6.2950
    -6.2868  -6.2356  -6.2356  -6.2341  -6.2309  -6.2309  -6.2287  -6.2130
    -6.2014  -6.2005  -6.1900  -6.1822  -6.1808  -6.1587  -6.1376  -6.1076
    -6.1070  -6.0863  -6.0783  -6.0773  -6.0760  -6.0559  -6.0556  -6.0309
    -6.0298  -6.0163  -6.0059  -6.0045  -5.9981  -5.9977  -5.9940  -5.9936
    -5.9825  -5.9809  -5.9664  -5.9108  -5.9018  -5.8978  -5.8972  -5.8743
    -5.8658  -5.8624  -5.8553  -5.8190  -5.8181  -5.8100  -5.7285  -5.7276
    -5.7036  -5.7013  -5.6911  -5.6815  -5.6703  -5.6597  -5.6585  -5.6464
    -5.6432  -5.6356  -5.6327  -5.6325  -5.6307  -5.6302  -5.6276  -5.6182
    -5.6106  -5.6091  -5.5642  -5.5337  -5.5184  -5.5167  -5.5103  -5.5043
    -5.5021  -5.5009  -5.4759  -5.4751  -5.4751  -5.4560  -5.4533  -5.4421
    -5.4384  -5.4282  -5.4245  -5.4057  -5.4044  -5.4044  -5.3757  -5.3637
    -5.3455  -5.3195  -5.3181  -5.3002  -5.2851  -5.2846  -5.2811  -5.2292
    -5.2274  -5.2168  -5.1814  -5.1674  -5.1669  -5.1649  -5.1524  -5.1498
    -5.1265  -5.1180  -5.1174  -5.1166  -5.1134  -5.1111  -5.1033  -5.1029
    -5.1024  -5.0990  -5.0636  -5.0611  -5.0590  -5.0397  -5.0386  -5.0340
    -4.9958  -4.9822  -4.9818  -4.9783  -4.9709  -4.9691  -4.9673  -4.9664
    -4.9378  -4.8805  -4.8772  -4.8719  -4.8450  -4.8440  -4.8390  -4.8356
    -4.8330  -4.8161  -4.8109  -4.8077  -4.7998  -4.7995  -4.7913  -4.7504
    -4.7472  -4.7457  -4.7377  -4.7377  -4.7353  -4.7069  -4.6338  -4.6319
    -4.6278  -4.5552  -4.5548  -4.5513  -4.5457  -4.5455  -4.5415  -4.5263
    -4.5159  -4.5120  -4.5089  -4.5022  -4.4943  -4.4933  -4.4909  -4.4653
    -4.4648  -4.4553  -4.4543  -4.4462  -4.4428  -4.3940  -4.3920  -4.3682
    -4.3495  -4.3448  -4.3438  -4.3371  -4.3307  -4.3145  -4.3123  -4.3103
    -4.3069  -4.3045  -4.2919  -4.2777  -4.2759  -4.2677  -4.2652  -4.2650
    -4.2621  -4.2609  -4.2587  -4.2405  -4.2379  -4.2340  -4.1569  -4.1557
    -4.1330  -4.1330  -4.1244  -4.1238  -4.1092  -4.1056  -4.0980  -4.0934
    -4.0929  -4.0893  -4.0546  -4.0279  -4.0275  -4.0138  -4.0066  -4.0020
    -3.9782  -3.9733  -3.9583  -3.9472  -3.9205  -3.9098  -3.9050  -3.9013
    -3.8997  -3.8931  -3.8820  -3.8805  -3.8794  -3.8205  -3.8070  -3.8040
    -3.7968  -3.7945  -3.7941  -3.7857  -3.7814  -3.7807  -3.7806  -3.7788
    -3.7739  -3.7674  -3.7460  -3.7444  -3.7390  -3.7347  -3.7308  -3.7286
    -3.7099  -3.7075  -3.6961  -3.6894  -3.6830  -3.6753  -3.6742  -3.6706
    -3.6533  -3.6154  -3.6132  -3.6130  -3.6060  -3.6057  -3.5981  -3.5910
    -3.5886  -3.5837  -3.5641  -3.5600  -3.5559  -3.5423  -3.5388  -3.5319
    -3.5294  -3.5213  -3.4977  -3.4965  -3.4936  -3.4866  -3.4626  -3.4323
    -3.4177  -3.4109  -3.4080  -3.4003  -3.3945  -3.3766  -3.3575  -3.3538
    -3.3495  -3.3366  -3.3236  -3.3205  -3.3172  -3.2963  -3.2904  -3.2744
    -3.2429  -3.2424  -3.2271  -3.2264  -3.2156  -3.2087  -3.2071  -3.2053
    -3.1976  -3.1939  -3.1932  -3.1744  -3.1729  -3.1669  -3.1622  -3.1608
    -3.1455  -3.1229  -3.1176  -3.1030  -3.1027  -3.1005  -3.0954  -3.0949
    -3.0895  -3.0885  -3.0780  -3.0773  -3.0753  -3.0537  -3.0535  -3.0487
    -3.0229  -3.0024  -2.9997  -2.9982  -2.9795  -2.9769  -2.9704  -2.9689
    -2.9675  -2.9362  -2.9110  -2.9057  -2.8910  -2.8726  -2.8617  -2.8567
    -2.8526  -2.8519  -2.8493  -2.8379  -2.8362  -2.8328  -2.8107  -2.7815
    -2.7807  -2.7767  -2.7524  -2.7450  -2.7271  -2.6930  -2.6879  -2.6855
    -2.6834  -2.6829  -2.6827  -2.6823  -2.6808  -2.6804  -2.6776  -2.6580
    -2.6296  -2.6243  -2.6233  -2.6088  -2.6056  -2.6013  -2.6008  -2.5996
    -2.5989  -2.5964  -2.5943  -2.5924  -2.5905  -2.5888  -2.5883  -2.5870
    -2.5802  -2.5801  -2.5657  -2.5567  -2.5559  -2.5530  -2.5317  -2.5303
    -2.5268  -2.5231  -2.5231  -2.5209  -2.4764  -2.4735  -2.4436  -2.4353
    -2.4338  -2.4323  -2.4211  -2.3995  -2.3971  -2.3897  -2.3756  -2.3755
    -2.3532  -2.3469  -2.3451  -2.3384  -2.2957  -2.2921  -2.2870  -2.2779
    -2.2772  -2.2723  -2.2586  -2.2574  -2.2561  -2.2553  -2.2482  -2.2093
    -2.2092  -2.2085  -2.1712  -2.1667  -2.1352  -2.1182  -2.1150  -2.0965
    -2.0769  -2.0712  -2.0647  -2.0581  -2.0535  -2.0533  -2.0486  -2.0483
    -2.0474  -2.0473  -2.0458  -2.0445  -1.8518  -1.8367  -1.5694  -1.2855
    -1.2799  -1.2798  -1.2795  -1.2788  -1.2268  -1.2144  -1.1543  -1.1535
    -1.1509  -1.1435  -1.1407  -1.1198  -1.1072  -1.1036  -1.1031  -1.0516
    -1.0443  -1.0438  -0.9679  -0.9227  -0.9201  -0.6345  -0.4326  -0.4319
    -0.2389  -0.2171   0.0029   0.0031   0.0052   0.0723   0.0746   0.0815
     0.0927   0.0933   0.1384   0.1627   0.1651   0.2122   0.2643   0.2680
     0.2724   0.2753   0.2785   0.2794   0.2815   0.2922   0.2938   0.3864
     0.4093   0.4111   0.4861   0.8671   1.2246   1.2256   1.2747   1.3604
     1.3640   1.3711   1.4732   1.4876   1.4926   1.4974   1.4974   1.5015
     1.5033   1.5365   1.5379   1.5394   1.5498   1.5710   1.5740   1.6050
     1.6118   1.6670   1.6720   1.6740   1.6798   1.6923   1.6946   1.8870
     2.0772   2.2302   2.2317   2.3111   2.3130   2.3250   2.3809   2.4535
     2.4926   2.4947   2.5145   2.5179   2.5255   2.6676   2.6965   2.7001
     2.7213   2.7243   2.7568   2.7577   2.7610   2.7711   2.7724   2.7732
     2.7803   2.7993   2.8016   2.8072   2.8354   2.8360   2.8523   2.8706
     2.8710   2.8861   2.8875   2.8886   2.8995   2.9377   2.9647   2.9661
     3.0031   3.0800   3.1043   3.1059   3.1576   3.1623   3.1654   3.1669
     3.2236   3.2257   3.2294   3.2302   3.3048   3.3425   3.3442   3.3575
     3.3600   3.3943   3.4069

     occupation numbers 
     1.0000   1.0000   1.0000   1.0000   1.0000   1.0000   1.0000   1.0000
     1.0000   1.0000   1.0000   1.0000   1.0000   1.0000   1.0000   1.0000
     1.0000   1.0000   1.0000   1.0000   1.0000   1.0000   1.0000   1.0000
     1.0000   1.0000   1.0000   1.0000   1.0000   1.0000   1.0000   1.0000
     1.0000   1.0000   1.0000   1.0000   1.0000   1.0000   1.0000   1.0000
     1.0000   1.0000   1.0000   1.0000   1.0000   1.0000   1.0000   1.0000
     1.0000   1.0000   1.0000   1.0000   1.0000   1.0000   1.0000   1.0000
     1.0000   1.0000   1.0000   1.0000   1.0000   1.0000   1.0000   1.0000
     1.0000   1.0000   1.0000   1.0000   1.0000   1.0000   1.0000   1.0000
     1.0000   1.0000   1.0000   1.0000   1.0000   1.0000   1.0000   1.0000
     1.0000   1.0000   1.0000   1.0000   1.0000   1.0000   1.0000   1.0000
     1.0000   1.0000   1.0000   1.0000   1.0000   1.0000   1.0000   1.0000
     1.0000   1.0000   1.0000   1.0000   1.0000   1.0000   1.0000   1.0000
     1.0000   1.0000   1.0000   1.0000   1.0000   1.0000   1.0000   1.0000
     1.0000   1.0000   1.0000   1.0000   1.0000   1.0000   1.0000   1.0000
     1.0000   1.0000   1.0000   1.0000   1.0000   1.0000   1.0000   1.0000
     1.0000   1.0000   1.0000   1.0000   1.0000   1.0000   1.0000   1.0000
     1.0000   1.0000   1.0000   1.0000   1.0000   1.0000   1.0000   1.0000
     1.0000   1.0000   1.0000   1.0000   1.0000   1.0000   1.0000   1.0000
     1.0000   1.0000   1.0000   1.0000   1.0000   1.0000   1.0000   1.0000
     1.0000   1.0000   1.0000   1.0000   1.0000   1.0000   1.0000   1.0000
     1.0000   1.0000   1.0000   1.0000   1.0000   1.0000   1.0000   1.0000
     1.0000   1.0000   1.0000   1.0000   1.0000   1.0000   1.0000   1.0000
     1.0000   1.0000   1.0000   1.0000   1.0000   1.0000   1.0000   1.0000
     1.0000   1.0000   1.0000   1.0000   1.0000   1.0000   1.0000   1.0000
     1.0000   1.0000   1.0000   1.0000   1.0000   1.0000   1.0000   1.0000
     1.0000   1.0000   1.0000   1.0000   1.0000   1.0000   1.0000   1.0000
     1.0000   1.0000   1.0000   1.0000   1.0000   1.0000   1.0000   1.0000
     1.0000   1.0000   1.0000   1.0000   1.0000   1.0000   1.0000   1.0000
     1.0000   1.0000   1.0000   1.0000   1.0000   1.0000   1.0000   1.0000
     1.0000   1.0000   1.0000   1.0000   1.0000   1.0000   1.0000   1.0000
     1.0000   1.0000   1.0000   1.0000   1.0000   1.0000   1.0000   1.0000
     1.0000   1.0000   1.0000   1.0000   1.0000   1.0000   1.0000   1.0000
     1.0000   1.0000   1.0000   1.0000   1.0000   1.0000   1.0000   1.0000
     1.0000   1.0000   1.0000   1.0000   1.0000   1.0000   1.0000   1.0000
     1.0000   1.0000   1.0000   1.0000   1.0000   1.0000   1.0000   1.0000
     1.0000   1.0000   1.0000   1.0000   1.0000   1.0000   1.0000   1.0000
     1.0000   1.0000   1.0000   1.0000   1.0000   1.0000   1.0000   1.0000
     1.0000   1.0000   1.0000   1.0000   1.0000   1.0000   1.0000   1.0000
     1.0000   1.0000   1.0000   1.0000   1.0000   1.0000   1.0000   1.0000
     1.0000   1.0000   1.0000   1.0000   1.0000   1.0000   1.0000   1.0000
     1.0000   1.0000   1.0000   1.0000   1.0000   1.0000   1.0000   1.0000
     1.0000   1.0000   1.0000   1.0000   1.0000   1.0000   1.0000   1.0000
     1.0000   1.0000   1.0000   1.0000   1.0000   1.0000   1.0000   1.0000
     1.0000   1.0000   1.0000   1.0000   1.0000   1.0000   1.0000   1.0000
     1.0000   1.0000   1.0000   1.0000   1.0000   1.0000   1.0000   1.0000
     1.0000   1.0000   1.0000   1.0000   1.0000   1.0000   1.0000   1.0000
     1.0000   1.0000   1.0000   1.0000   1.0000   1.0000   1.0000   1.0000
     1.0000   1.0000   1.0000   1.0000   1.0000   1.0000   1.0000   1.0000
     1.0000   1.0000   1.0000   1.0000   1.0000   1.0000   1.0000   1.0000
     1.0000   1.0000   1.0000   1.0000   1.0000   1.0000   1.0000   1.0000
     1.0000   1.0000   1.0000   1.0000   1.0000   1.0000   1.0000   1.0000
     1.0000   1.0000   1.0000   1.0000   1.0000   1.0000   1.0000   1.0000
     1.0000   1.0000   1.0000   1.0000   1.0000   1.0000   1.0000   1.0000
     1.0000   1.0000   1.0000   1.0000   1.0000   1.0000   1.0000   1.0000
     1.0000   1.0000   1.0000   1.0000   1.0000   1.0000   1.0000   1.0000
     1.0000   1.0000   1.0000   1.0000   1.0000   1.0000   1.0000   1.0000
     1.0000   1.0000   1.0000   1.0000   1.0000   1.0000   1.0000   1.0000
     1.0000   1.0000   1.0000   1.0000   1.0000   1.0000   1.0000   1.0000
     1.0000   1.0000   1.0000   1.0000   1.0000   1.0000   1.0000   1.0000
     1.0000   1.0000   1.0000   1.0000   1.0000   1.0000   1.0000   1.0000
     1.0000   1.0000   1.0000   1.0000   1.0000   1.0000   1.0000   1.0000
     1.0000   1.0000   1.0000   1.0000   1.0000   1.0000   1.0000   1.0000
     1.0000   1.0000   1.0000   1.0000   1.0000   1.0000   1.0000   1.0000
     1.0000   1.0000   1.0000   1.0000   1.0000   1.0000   1.0000   1.0000
     1.0000   1.0000   1.0000   1.0000   1.0000   1.0000   1.0000   1.0000
     1.0000   1.0000   1.0000   1.0000   1.0000   1.0000   1.0000   1.0000
     1.0000   1.0000   1.0000   1.0000   1.0000   1.0000   1.0000   1.0000
     1.0000   1.0000   1.0000   1.0000   1.0000   1.0000   1.0000   1.0000
     1.0000   1.0000   1.0000   1.0000   1.0000   1.0000   1.0000   1.0000
     1.0000   1.0000   1.0000   1.0000   1.0000   1.0000   1.0000   1.0000
     1.0000   1.0000   1.0000   1.0000   1.0000   1.0000   1.0000   1.0000
     1.0000   1.0000   1.0000   1.0000   1.0000   1.0000   1.0000   1.0000
     1.0000   1.0000   1.0000   1.0000   1.0000   1.0000   1.0000   1.0000
     1.0000   1.0000   1.0000   1.0000   1.0000   1.0000   1.0000   1.0000
     1.0000   1.0000   1.0000   1.0000   1.0000   1.0000   1.0000   1.0000
     1.0000   1.0000   1.0000   1.0000   1.0000   1.0000   1.0000   1.0000
     1.0000   1.0000   1.0000   1.0000   1.0000   1.0000   1.0000   1.0000
     1.0000   1.0000   1.0000   1.0000   1.0000   1.0000   1.0000   1.0000
     1.0000   1.0000   1.0000   1.0000   1.0000   1.0000   1.0000   1.0000
     1.0000   1.0000   1.0000   1.0000   1.0000   1.0000   1.0000   1.0000
     1.0000   1.0000   1.0000   1.0000   1.0000   1.0000   1.0000   1.0000
     1.0000   1.0000   1.0000   1.0000   1.0000   1.0000   1.0000   1.0000
     1.0000   1.0000   1.0000   1.0000   1.0000   1.0000   1.0000   1.0000
     1.0000   1.0000   1.0000   1.0000   1.0000   1.0000   1.0000   1.0000
     1.0000   1.0000   1.0000   1.0000   1.0000   1.0000   1.0000   1.0000
     1.0000   1.0000   1.0000   1.0000   1.0000   1.0000   1.0000   1.0000
     1.0000   1.0000   1.0000   1.0000   1.0000   1.0000   1.0000   1.0000
     1.0000   1.0000   1.0000   1.0000   1.0000   1.0000   1.0000   1.0000
     1.0000   1.0000   1.0000   1.0000   1.0000   1.0000   1.0000   1.0000
     1.0000   1.0000   1.0000   1.0000   1.0000   1.0000   1.0000   1.0000
     1.0000   1.0000   1.0000   1.0000   1.0000   1.0000   1.0000   1.0000
     1.0000   1.0000   1.0000   1.0000   1.0000   1.0000   1.0000   1.0000
     1.0000   1.0000   1.0000   1.0000   1.0000   1.0000   1.0000   1.0000
     1.0000   1.0000   1.0000   1.0000   1.0000   1.0000   1.0000   1.0000
     1.0000   1.0000   1.0000   1.0000   1.0000   1.0000   1.0000   1.0000
     1.0000   1.0000   1.0000   1.0000   1.0000   1.0000   1.0000   1.0000
     1.0000   1.0000   1.0000   1.0000   1.0000   1.0000   1.0000   1.0000
     1.0000   1.0000   1.0000   1.0000   1.0000   1.0000   1.0000   1.0000
     1.0000   1.0000   1.0000   1.0000   1.0000   1.0000   1.0000   1.0000
     1.0000   1.0000   1.0000   1.0000   1.0000   1.0000   1.0000   1.0000
     1.0000   1.0000   1.0000   1.0000   1.0000   1.0000   1.0000   1.0000
     1.0000   1.0000   1.0000   1.0000   1.0000   1.0000   1.0000   1.0000
     1.0000   1.0000   1.0000   1.0000   1.0000   1.0000   1.0000   1.0000
     1.0000   1.0000   1.0000   1.0000   1.0000   1.0000   1.0000   1.0000
     1.0000   1.0000   1.0000   1.0000   1.0000   1.0000   1.0000   1.0000
     1.0000   1.0000   1.0000   1.0000   1.0000   1.0000   1.0000   1.0000
     1.0000   1.0000   1.0000   1.0000   1.0000   1.0000   1.0000   1.0000
     1.0000   1.0000   1.0000   1.0000   1.0000   1.0000   1.0000   1.0000
     1.0000   1.0000   1.0000   1.0000   1.0000   1.0000   1.0000   0.9999
     0.9999   0.9998   0.9996   0.9994   0.9989   0.9967   0.9961   0.9958
     0.9956   0.9955   0.9955   0.9954   0.9952   0.9951   0.9947   0.9907
     0.9802   0.9774   0.9769   0.9672   0.9648   0.9611   0.9607   0.9596
     0.9590   0.9567   0.9547   0.9527   0.9507   0.9489   0.9484   0.9469
     0.9388   0.9387   0.9184   0.9033   0.9018   0.8965   0.8509   0.8476
     0.8387   0.8294   0.8292   0.8233   0.6793   0.6686   0.5495   0.5155
     0.5091   0.5029   0.4567   0.3694   0.3600   0.3315   0.2802   0.2799
     0.2077   0.1892   0.1845   0.1663   0.0790   0.0736   0.0664   0.0551
     0.0542   0.0489   0.0361   0.0351   0.0341   0.0334   0.0283   0.0104
     0.0104   0.0102   0.0034   0.0029   0.0010   0.0006   0.0005   0.0002
     0.0001   0.0001   0.0001   0.0001   0.0000   0.0000   0.0000   0.0000
     0.0000   0.0000   0.0000   0.0000   0.0000   0.0000   0.0000   0.0000
     0.0000   0.0000   0.0000   0.0000   0.0000   0.0000   0.0000   0.0000
     0.0000   0.0000   0.0000   0.0000   0.0000   0.0000   0.0000   0.0000
     0.0000   0.0000   0.0000   0.0000   0.0000   0.0000   0.0000   0.0000
     0.0000   0.0000   0.0000   0.0000   0.0000   0.0000   0.0000   0.0000
     0.0000   0.0000   0.0000   0.0000   0.0000   0.0000   0.0000   0.0000
     0.0000   0.0000   0.0000   0.0000   0.0000   0.0000   0.0000   0.0000
     0.0000   0.0000   0.0000   0.0000   0.0000   0.0000   0.0000   0.0000
     0.0000   0.0000   0.0000   0.0000   0.0000   0.0000   0.0000   0.0000
     0.0000   0.0000   0.0000   0.0000   0.0000   0.0000   0.0000   0.0000
     0.0000   0.0000   0.0000   0.0000   0.0000   0.0000   0.0000   0.0000
     0.0000   0.0000   0.0000   0.0000   0.0000   0.0000   0.0000   0.0000
     0.0000   0.0000   0.0000   0.0000   0.0000   0.0000   0.0000   0.0000
     0.0000   0.0000   0.0000   0.0000   0.0000   0.0000   0.0000   0.0000
     0.0000   0.0000   0.0000   0.0000   0.0000   0.0000   0.0000   0.0000
     0.0000   0.0000   0.0000   0.0000   0.0000   0.0000   0.0000   0.0000
     0.0000   0.0000   0.0000   0.0000   0.0000   0.0000   0.0000   0.0000
     0.0000   0.0000   0.0000   0.0000   0.0000   0.0000   0.0000   0.0000
     0.0000   0.0000   0.0000

 ------ SPIN DOWN ----------


          k = 0.0000 0.0000 0.0000 (413569 PWs)   bands (ev):

   -55.5494 -55.4931 -55.4922 -55.4907 -55.4748 -55.4736 -55.4723 -55.4640
   -55.4633 -55.4615 -55.4547 -55.4500 -55.4150 -55.4132 -55.4103 -55.4097
   -55.4044 -55.4031 -55.3824 -55.3810 -55.3772 -55.3747 -55.3704 -55.3704
   -55.3675 -55.3659 -55.3604 -55.3575 -55.3535 -55.3315 -55.3308 -55.3262
   -55.3003 -55.2997 -55.2990 -55.2982 -55.2969 -55.2926 -55.2920 -55.2915
   -55.2910 -55.2852 -55.2840 -55.2724 -55.2715 -55.2615 -55.2599 -55.2581
   -55.2551 -55.2547 -55.2512 -55.2494 -55.2456 -55.2445 -55.2386 -55.2381
   -55.2365 -55.2325 -55.2235 -55.2235 -55.2201 -55.2185 -55.2173 -55.2159
   -55.2148 -55.2137 -55.2074 -55.2063 -55.2059 -55.1957 -55.1923 -55.1774
   -55.1759 -55.1730 -55.1691 -55.1689 -55.1676 -55.1670 -55.1622 -55.1618
   -55.1582 -55.1492 -55.1371 -55.1364 -55.1345 -55.1284 -55.1248 -55.1247
   -55.1234 -55.1228 -55.1108 -55.1064 -55.0999 -55.0992 -55.0982 -55.0950
   -55.0946 -55.0939 -55.0926 -55.0919 -55.0914 -55.0914 -55.0843 -55.0834
   -55.0812 -55.0778 -55.0758 -55.0742 -55.0724 -55.0713 -55.0668 -55.0657
   -55.0648 -55.0533 -54.9619 -54.9477 -54.8996 -54.8985 -54.8944 -54.8932
   -54.8929 -54.8914 -54.8898 -54.8873 -54.8701 -54.8417 -54.8413 -54.8403
   -54.8391 -54.8371 -54.8368 -54.8349 -54.8337 -54.8336 -54.8330 -54.8314
   -54.8308 -54.8270 -54.8268 -54.8187 -54.7801 -54.7760 -54.7736 -54.7715
   -54.7696 -54.7667 -54.7652 -54.7596 -54.7468 -54.7316 -54.7288 -54.7281
   -54.7272 -54.7251 -54.7226 -54.7224 -54.7210 -54.7199 -54.7190 -54.7176
   -54.7170 -54.7165 -54.7151 -54.7127 -54.7088 -54.7029 -54.6996 -54.6994
   -54.6984 -54.6976 -54.6968 -54.6945 -54.6944 -54.6938 -54.6899 -54.6898
   -54.6882 -54.6872 -54.6862 -54.6826 -54.6620 -54.6609 -54.6596 -54.6596
   -54.6580 -54.6528 -54.6518 -54.6508 -54.6499 -54.6497 -54.6495 -54.6445
   -54.6412 -54.6399 -54.6388 -54.6366 -54.6354 -54.6335 -54.6308 -54.6286
   -54.5401 -54.5382 -54.5266 -54.5247 -54.5245 -54.5225 -54.5218 -54.5182
   -54.5139 -54.5128 -54.5121 -54.4901 -54.4785 -54.4775 -54.4764 -54.4748
   -54.4746 -54.4727 -54.4712 -54.4687 -54.4677 -54.4671 -54.4655 -54.4653
   -54.4652 -54.4647 -54.4641 -54.4624 -54.4609 -54.4594 -54.4526 -54.4513
   -54.4502 -54.4498 -54.4469 -54.4468 -54.4456 -54.4451 -54.4446 -54.4441
   -54.4439 -54.4305 -54.4297 -54.4292 -54.4266 -54.4264 -54.4255 -54.4234
   -54.4209 -54.4205 -54.4201 -54.4194 -54.4181 -54.4105 -54.4087 -54.4084
   -54.4078 -54.4066 -54.4064 -54.3792 -54.3696 -54.3692 -54.3675 -54.3668
   -54.3653 -54.3619 -54.3601 -54.3601 -54.3597 -54.3581 -54.3576 -54.3573
   -54.3560 -54.3515 -54.3514 -54.3505 -54.3453 -54.3440 -54.3439 -54.3407
   -54.3400 -54.3369 -54.3355 -54.3352 -54.3323 -54.3309 -54.3305 -54.3277
   -54.3275 -54.3241 -54.3241 -54.3234 -54.3223 -54.3219 -54.3206 -54.3198
   -54.3197 -54.3194 -54.3188 -54.3184 -54.3129 -54.3117 -54.3115 -54.3082
   -54.3080 -54.3059 -54.3053 -54.3053 -54.3043 -54.3041 -54.3032 -54.2981
   -54.2979 -54.2977 -54.2972 -54.2969 -54.2965 -54.2961 -54.2960 -54.2958
   -54.2954 -54.2951 -54.2948 -54.2947 -54.2467 -54.2455 -54.2451 -54.2449
   -54.2440 -54.2439 -54.2431 -54.2430 -54.2428 -54.2425 -54.2413 -54.2407
   -54.2116 -54.2116 -54.2114 -54.2114 -54.2107 -54.2106 -54.2100 -54.2095
   -54.2093 -54.2092 -54.2082 -54.2081 -11.5066 -10.6661 -10.6636 -10.6627
    -9.7992  -9.7925  -9.7914  -9.7694  -9.7638  -9.5547  -9.1875  -9.1816
    -9.1816  -9.0901  -8.9682  -8.9591  -8.9565  -8.7733  -8.7562  -8.7512
    -8.7287  -8.7149  -8.7147  -8.6575  -8.5918  -8.5889  -8.5883  -8.5860
    -8.5820  -8.5813  -8.5714  -8.5653  -8.5556  -8.5531  -8.3859  -8.3856
    -8.3849  -8.3365  -8.3356  -8.3291  -8.3218  -8.3210  -8.2925  -8.2906
    -8.2877  -8.2597  -8.2512  -8.2511  -8.1211  -8.1189  -8.0648  -8.0605
    -8.0598  -7.9952  -7.9759  -7.9698  -7.9259  -7.9113  -7.9105  -7.9094
    -7.9092  -7.9059  -7.8724  -7.8516  -7.8356  -7.8341  -7.8272  -7.8265
    -7.8232  -7.7410  -7.7375  -7.7150  -7.6983  -7.6964  -7.6735  -7.6088
    -7.5810  -7.5764  -7.5750  -7.5744  -7.5718  -7.5710  -7.5709  -7.5696
    -7.5683  -7.5648  -7.5632  -7.5627  -7.5437  -7.5429  -7.5414  -7.4812
    -7.4683  -7.4575  -7.4570  -7.4565  -7.4554  -7.4552  -7.4511  -7.4438
    -7.4362  -7.4344  -7.4334  -7.4131  -7.4031  -7.3894  -7.3888  -7.3200
    -7.3077  -7.3075  -7.2444  -7.2298  -7.2270  -7.1880  -7.1863  -7.1841
    -7.1099  -7.1022  -7.1013  -7.0659  -7.0648  -7.0636  -6.9966  -6.9942
    -6.9926  -6.9729  -6.9523  -6.9520  -6.9151  -6.9134  -6.9108  -6.9064
    -6.9030  -6.8981  -6.7995  -6.7961  -6.7938  -6.7522  -6.7039  -6.6654
    -6.6455  -6.6381  -6.5887  -6.5880  -6.5846  -6.5812  -6.5791  -6.5696
    -6.5647  -6.5647  -6.5432  -6.5282  -6.5269  -6.5245  -6.5211  -6.5173
    -6.5049  -6.4681  -6.4669  -6.4576  -6.4544  -6.4541  -6.4515  -6.4502
    -6.4497  -6.4483  -6.4481  -6.4466  -6.4465  -6.4454  -6.3721  -6.3451
    -6.3449  -6.3380  -6.3355  -6.3325  -6.3239  -6.3104  -6.2949  -6.2934
    -6.2852  -6.2341  -6.2340  -6.2325  -6.2292  -6.2291  -6.2271  -6.2113
    -6.1995  -6.1987  -6.1882  -6.1804  -6.1791  -6.1571  -6.1363  -6.1062
    -6.1055  -6.0848  -6.0768  -6.0757  -6.0745  -6.0541  -6.0537  -6.0289
    -6.0277  -6.0149  -6.0043  -6.0030  -5.9965  -5.9959  -5.9923  -5.9920
    -5.9804  -5.9787  -5.9645  -5.9091  -5.9003  -5.8963  -5.8956  -5.8726
    -5.8639  -5.8606  -5.8535  -5.8171  -5.8161  -5.8082  -5.7269  -5.7260
    -5.7019  -5.6997  -5.6892  -5.6798  -5.6684  -5.6574  -5.6561  -5.6439
    -5.6408  -5.6335  -5.6306  -5.6306  -5.6288  -5.6283  -5.6259  -5.6162
    -5.6088  -5.6073  -5.5624  -5.5303  -5.5161  -5.5145  -5.5081  -5.5019
    -5.4998  -5.4987  -5.4737  -5.4730  -5.4728  -5.4545  -5.4517  -5.4403
    -5.4368  -5.4267  -5.4231  -5.4039  -5.4025  -5.4025  -5.3742  -5.3621
    -5.3440  -5.3178  -5.3165  -5.2986  -5.2836  -5.2831  -5.2795  -5.2278
    -5.2259  -5.2150  -5.1797  -5.1659  -5.1653  -5.1632  -5.1504  -5.1478
    -5.1248  -5.1163  -5.1158  -5.1149  -5.1116  -5.1095  -5.1016  -5.1013
    -5.1008  -5.0970  -5.0619  -5.0594  -5.0573  -5.0379  -5.0366  -5.0321
    -4.9941  -4.9803  -4.9799  -4.9764  -4.9689  -4.9670  -4.9654  -4.9645
    -4.9359  -4.8787  -4.8754  -4.8702  -4.8431  -4.8420  -4.8369  -4.8338
    -4.8308  -4.8145  -4.8093  -4.8062  -4.7982  -4.7979  -4.7897  -4.7489
    -4.7457  -4.7442  -4.7362  -4.7362  -4.7336  -4.7053  -4.6315  -4.6294
    -4.6253  -4.5532  -4.5527  -4.5492  -4.5434  -4.5432  -4.5395  -4.5244
    -4.5139  -4.5097  -4.5066  -4.4998  -4.4921  -4.4910  -4.4887  -4.4633
    -4.4629  -4.4537  -4.4526  -4.4443  -4.4410  -4.3923  -4.3903  -4.3668
    -4.3477  -4.3431  -4.3419  -4.3353  -4.3289  -4.3128  -4.3105  -4.3082
    -4.3048  -4.3023  -4.2901  -4.2755  -4.2737  -4.2660  -4.2635  -4.2633
    -4.2601  -4.2590  -4.2568  -4.2386  -4.2359  -4.2320  -4.1549  -4.1536
    -4.1314  -4.1314  -4.1224  -4.1218  -4.1071  -4.1035  -4.0961  -4.0915
    -4.0908  -4.0871  -4.0525  -4.0256  -4.0251  -4.0116  -4.0045  -3.9999
    -3.9765  -3.9713  -3.9566  -3.9453  -3.9183  -3.9078  -3.9029  -3.8993
    -3.8976  -3.8909  -3.8800  -3.8785  -3.8774  -3.8184  -3.8053  -3.8022
    -3.7951  -3.7927  -3.7923  -3.7839  -3.7795  -3.7786  -3.7784  -3.7765
    -3.7718  -3.7654  -3.7443  -3.7427  -3.7371  -3.7328  -3.7288  -3.7266
    -3.7078  -3.7054  -3.6941  -3.6878  -3.6814  -3.6734  -3.6720  -3.6685
    -3.6512  -3.6131  -3.6111  -3.6108  -3.6042  -3.6038  -3.5962  -3.5890
    -3.5866  -3.5818  -3.5622  -3.5581  -3.5542  -3.5404  -3.5370  -3.5302
    -3.5277  -3.5194  -3.4959  -3.4947  -3.4917  -3.4847  -3.4607  -3.4302
    -3.4156  -3.4087  -3.4060  -3.3985  -3.3927  -3.3748  -3.3556  -3.3518
    -3.3476  -3.3347  -3.3216  -3.3185  -3.3151  -3.2942  -3.2883  -3.2723
    -3.2409  -3.2403  -3.2249  -3.2242  -3.2134  -3.2065  -3.2050  -3.2032
    -3.1954  -3.1916  -3.1910  -3.1725  -3.1708  -3.1649  -3.1602  -3.1588
    -3.1433  -3.1208  -3.1153  -3.1009  -3.1007  -3.0983  -3.0930  -3.0927
    -3.0874  -3.0864  -3.0757  -3.0750  -3.0729  -3.0516  -3.0515  -3.0466
    -3.0207  -3.0002  -2.9974  -2.9960  -2.9773  -2.9747  -2.9680  -2.9664
    -2.9651  -2.9341  -2.9091  -2.9038  -2.8889  -2.8704  -2.8594  -2.8541
    -2.8497  -2.8494  -2.8464  -2.8354  -2.8336  -2.8308  -2.8082  -2.7792
    -2.7785  -2.7747  -2.7498  -2.7425  -2.7247  -2.6908  -2.6858  -2.6833
    -2.6811  -2.6807  -2.6805  -2.6802  -2.6785  -2.6783  -2.6758  -2.6557
    -2.6276  -2.6220  -2.6208  -2.6060  -2.6029  -2.5987  -2.5982  -2.5965
    -2.5961  -2.5937  -2.5917  -2.5898  -2.5879  -2.5860  -2.5855  -2.5844
    -2.5776  -2.5776  -2.5630  -2.5539  -2.5528  -2.5501  -2.5280  -2.5268
    -2.5230  -2.5202  -2.5201  -2.5180  -2.4734  -2.4706  -2.4408  -2.4313
    -2.4307  -2.4297  -2.4180  -2.3963  -2.3939  -2.3865  -2.3727  -2.3727
    -2.3507  -2.3443  -2.3426  -2.3356  -2.2929  -2.2894  -2.2845  -2.2757
    -2.2749  -2.2701  -2.2562  -2.2552  -2.2533  -2.2525  -2.2458  -2.2063
    -2.2061  -2.2054  -2.1679  -2.1643  -2.1327  -2.1163  -2.1131  -2.0944
    -2.0746  -2.0693  -2.0627  -2.0562  -2.0513  -2.0513  -2.0465  -2.0458
    -2.0449  -2.0448  -2.0439  -2.0425  -1.8502  -1.8352  -1.5677  -1.2842
    -1.2787  -1.2786  -1.2779  -1.2773  -1.2252  -1.2124  -1.1524  -1.1516
    -1.1491  -1.1418  -1.1389  -1.1184  -1.1058  -1.1021  -1.1017  -1.0502
    -1.0424  -1.0418  -0.9664  -0.9212  -0.9186  -0.6332  -0.4318  -0.4310
    -0.2377  -0.2159   0.0041   0.0043   0.0064   0.0738   0.0761   0.0828
     0.0942   0.0946   0.1398   0.1643   0.1666   0.2137   0.2658   0.2695
[...]
     atom   16 type  1   force =     0.00003535    0.00001871   -0.00002029
     atom   17 type  1   force =     0.00003171   -0.00001536    0.00004423
     atom   18 type  1   force =     0.00002311   -0.00003261   -0.00000859
     atom   19 type  1   force =     0.00005994   -0.00001756    0.00001402
     atom   20 type  1   force =     0.00002020   -0.00001271   -0.00002218
     atom   21 type  1   force =     0.00002042    0.00001578    0.00000959
     atom   22 type  1   force =     0.00008452   -0.00002880   -0.00002880
     atom   23 type  1   force =     0.00002518    0.00000959   -0.00000735
     atom   24 type  1   force =     0.00002519   -0.00000734    0.00000959
     atom   25 type  1   force =     0.00003536   -0.00002033    0.00001872
     atom   26 type  1   force =    -0.00000709    0.00003107    0.00003104
     atom   27 type  1   force =    -0.00000814    0.00004881    0.00002751
     atom   28 type  1   force =    -0.00000815    0.00002754    0.00004879
     atom   29 type  1   force =     0.00000857    0.00008249    0.00002111
     atom   30 type  1   force =     0.00002985   -0.00000647   -0.00002837
     atom   31 type  1   force =    -0.00000280    0.00004616   -0.00000566
     atom   32 type  1   force =     0.00001144    0.00002181   -0.00001698
     atom   33 type  1   force =     0.00001319    0.00004824   -0.00000616
     atom   34 type  1   force =     0.00002179    0.00003905   -0.00000838
     atom   35 type  1   force =    -0.00000340    0.00004204   -0.00002020
     atom   36 type  1   force =     0.00001322    0.00005530    0.00003022
     atom   37 type  1   force =     0.00000749    0.00004177   -0.00002821
     atom   38 type  1   force =     0.00000857    0.00002115    0.00008244
     atom   39 type  1   force =     0.00002984   -0.00002835   -0.00000649
     atom   40 type  1   force =     0.00001144   -0.00001695    0.00002178
     atom   41 type  1   force =    -0.00000282   -0.00000567    0.00004615
     atom   42 type  1   force =    -0.00004338   -0.00000954   -0.00000957
     atom   43 type  1   force =     0.00002829   -0.00001149   -0.00001153
     atom   44 type  1   force =     0.00002303    0.00000297    0.00000607
     atom   45 type  1   force =     0.00002301    0.00000608    0.00000294
     atom   46 type  1   force =     0.00001235    0.00002017   -0.00000124
     atom   47 type  1   force =     0.00000236    0.00001057   -0.00000673
     atom   48 type  1   force =     0.00001637    0.00002819   -0.00001443
     atom   49 type  1   force =    -0.00000306    0.00002264    0.00001722
     atom   50 type  1   force =     0.00003716    0.00003273   -0.00003845
     atom   51 type  1   force =     0.00002027    0.00001397   -0.00004878
     atom   52 type  1   force =     0.00001318   -0.00000618    0.00004822
     atom   53 type  1   force =     0.00002178   -0.00000841    0.00003905
     atom   54 type  1   force =     0.00001320    0.00003022    0.00005530
     atom   55 type  1   force =    -0.00000341   -0.00002022    0.00004205
     atom   56 type  1   force =     0.00001233   -0.00000127    0.00002014
     atom   57 type  1   force =     0.00000234   -0.00000675    0.00001054
     atom   58 type  1   force =    -0.00000307    0.00001722    0.00002262
     atom   59 type  1   force =     0.00001635   -0.00001445    0.00002817
     atom   60 type  1   force =     0.00000292   -0.00003139   -0.00003139
     atom   61 type  1   force =     0.00000015   -0.00003065   -0.00003064
     atom   62 type  1   force =    -0.00000717    0.00000435   -0.00003434
     atom   63 type  1   force =    -0.00000716   -0.00003434    0.00000435
     atom   64 type  1   force =     0.00001476   -0.00001354   -0.00005261
     atom   65 type  1   force =    -0.00000193   -0.00003951   -0.00005505
     atom   66 type  1   force =     0.00000748   -0.00002822    0.00004176
     atom   67 type  1   force =     0.00003717   -0.00003849    0.00003271
     atom   68 type  1   force =     0.00002027   -0.00004880    0.00001397
     atom   69 type  1   force =     0.00001474   -0.00005263   -0.00001353
     atom   70 type  1   force =    -0.00000191   -0.00005504   -0.00003952
     atom   71 type  1   force =    -0.00000743    0.00001955    0.00001953
     atom   72 type  1   force =    -0.00002102    0.00005178    0.00000383
     atom   73 type  1   force =     0.00001422    0.00002939   -0.00000137
     atom   74 type  1   force =    -0.00002821    0.00004570   -0.00000584
     atom   75 type  1   force =    -0.00002166    0.00002577   -0.00000188
     atom   76 type  1   force =    -0.00002280    0.00005322   -0.00002380
     atom   77 type  1   force =     0.00000585    0.00003966   -0.00000187
     atom   78 type  1   force =    -0.00003058    0.00002990    0.00000022
     atom   79 type  1   force =    -0.00002102    0.00000385    0.00005176
     atom   80 type  1   force =     0.00001421   -0.00000137    0.00002937
     atom   81 type  1   force =    -0.00002167   -0.00000185    0.00002575
     atom   82 type  1   force =    -0.00002822   -0.00000585    0.00004568
     atom   83 type  1   force =    -0.00000783    0.00000457    0.00000454
     atom   84 type  1   force =     0.00002303    0.00002797    0.00002796
     atom   85 type  1   force =    -0.00002241    0.00000823    0.00000877
     atom   86 type  1   force =    -0.00002242    0.00000876    0.00000823
     atom   87 type  1   force =     0.00001217    0.00002846    0.00001313
     atom   88 type  1   force =     0.00000439    0.00001252   -0.00001384
     atom   89 type  1   force =    -0.00003723    0.00002331   -0.00002672
     atom   90 type  1   force =    -0.00001896    0.00001147    0.00001265
     atom   91 type  1   force =     0.00000564    0.00003187   -0.00004614
     atom   92 type  1   force =    -0.00003359    0.00000589   -0.00005382
     atom   93 type  1   force =    -0.00002280   -0.00002381    0.00005320
     atom   94 type  1   force =     0.00000583   -0.00000188    0.00003964
     atom   95 type  1   force =    -0.00003059    0.00000021    0.00002987
     atom   96 type  1   force =     0.00001216    0.00001313    0.00002845
     atom   97 type  1   force =     0.00000438   -0.00001384    0.00001252
     atom   98 type  1   force =    -0.00001896    0.00001265    0.00001148
     atom   99 type  1   force =    -0.00003724   -0.00002673    0.00002329
     atom  100 type  1   force =    -0.00000441   -0.00000728   -0.00000729
     atom  101 type  1   force =    -0.00001502   -0.00004303   -0.00004303
     atom  102 type  1   force =    -0.00003227   -0.00001672   -0.00003135
     atom  103 type  1   force =    -0.00003227   -0.00003135   -0.00001671
     atom  104 type  1   force =    -0.00001634   -0.00002107   -0.00005923
     atom  105 type  1   force =     0.00000564   -0.00004615    0.00003185
     atom  106 type  1   force =    -0.00003360   -0.00005380    0.00000590
     atom  107 type  1   force =    -0.00001634   -0.00005923   -0.00002105
     atom  108 type  1   force =    -0.00004741    0.00003468    0.00000540
     atom  109 type  1   force =    -0.00004741    0.00000541    0.00003466
     atom  110 type  1   force =    -0.00006347    0.00002301    0.00002301
     atom  111 type  1   force =    -0.00005002    0.00000903    0.00000903
     atom  112 type  1   force =    -0.00006442    0.00003005   -0.00000919
     atom  113 type  1   force =    -0.00005769    0.00000078   -0.00003421
     atom  114 type  1   force =    -0.00006441   -0.00000920    0.00003003
     atom  115 type  1   force =    -0.00005768   -0.00003421    0.00000078
     atom  116 type  1   force =    -0.00006466   -0.00001881   -0.00001879
     atom  117 type  2   force =    -0.00000335   -0.00000214   -0.00000214

     Total force =     0.004344     Total SCF correction =     0.000527
     SCF correction compared to forces is large: reduce conv_thr to get better values
     Energy error            =      3.1E-05 Ry
     Gradient error          =      8.8E-04 Ry/Bohr

     bfgs converged in  11 scf cycles and  10 bfgs steps
     (criteria: energy <  1.0E-04 Ry, force <  1.0E-03 Ry/Bohr)

     End of BFGS Geometry Optimization

     Final energy             =  -24449.0206780421 Ry

     File ./out/calc.bfgs deleted, as requested
Begin final coordinates

ATOMIC_POSITIONS (angstrom)
Pt              -5.7951605798       -3.8537262624        0.0125920408
Pt              -3.8336717188       -5.7884628211        0.0020260296
Pt              -4.0522796665       -4.0482631498       -2.1172887708
Pt              -4.0382870693       -4.0273206482        2.1105951180
Pt              -5.7951605798        0.0125920408       -3.8537262624
Pt              -4.0522796665       -2.1172887708       -4.0482631498
Pt              -3.8336717188        0.0020260296       -5.7884628211
Pt              -5.9326887214       -1.9788999129       -1.9788999129
Pt              -5.9264167302       -0.0127636976       -0.0127636976
Pt              -3.9046600275       -1.9781418692       -0.0327960799
Pt              -3.9046600275       -0.0327960799       -1.9781418692
Pt              -5.8409108350       -1.9502791413        1.9566644406
Pt              -5.7851301839        0.0002841993        3.8392147223
Pt              -4.0484336608       -2.1209425674        4.0560628330
Pt              -3.8786474219       -0.0176704738        1.9560460324
Pt              -3.8421089154       -0.0004058770        5.7913989699
Pt              -4.0382870693        2.1105951180       -4.0273206482
Pt              -5.8409108350        1.9566644406       -1.9502791413
Pt              -5.7851301839        3.8392147223        0.0002841993
Pt              -3.8786474219        1.9560460324       -0.0176704738
Pt              -4.0484336608        4.0560628330       -2.1209425674
Pt              -5.8219338751        1.9452262817        1.9452262817
Pt              -4.0493008071        2.1201511800        4.0484214711
Pt              -4.0493008071        4.0484214711        2.1201511800
Pt              -3.8421089154        5.7913989699       -0.0004058770
Pt              -2.1229595432       -4.0456924882       -4.0456924882
Pt              -0.0006528911       -5.7882075144       -3.8399611795
Pt              -0.0006528911       -3.8399611795       -5.7882075144
Pt              -1.9507318698       -5.8372416956       -1.9481062142
Pt              -1.9739169973       -3.8652718455        0.0079027115
Pt              -0.0030037898       -5.9178184067       -0.0037007518
Pt              -0.0034376085       -3.8780942057       -1.9658294952
Pt              -1.9461638018       -5.8360997409        1.9499872616
Pt              -2.1193267650       -4.0448948360        4.0464108351
Pt              -0.0023502124       -5.7868748975        3.8447484092
Pt              -0.0008546035       -3.8742975101        1.9682240307
Pt               0.0029324865       -3.8443122654        5.7969492062
Pt              -1.9507318698       -1.9481062142       -5.8372416956
Pt              -1.9739169973        0.0079027115       -3.8652718455
Pt              -0.0034376085       -1.9658294952       -3.8780942057
Pt              -0.0030037898       -0.0037007518       -5.9178184067
Pt              -2.0287822702       -2.0365436788       -2.0365436788
Pt              -1.9733636339       -0.0172498963       -0.0172498963
Pt               0.0005363083       -1.9609129566       -0.0005540912
Pt               0.0005363083       -0.0005540912       -1.9609129566
Pt              -2.0168247224       -2.0174104457        2.0411890388
Pt              -1.9704774057       -0.0011550118        3.8771432944
Pt               0.0142468038       -1.9704557825        3.8909567914
Pt              -0.0021459417        0.0003404433        1.9611053827
Pt              -1.9478713370       -1.9523546414        5.8379598776
Pt               0.0001853617        0.0026606928        5.9208881026
Pt              -1.9461638018        1.9499872616       -5.8360997409
Pt              -2.1193267650        4.0464108351       -4.0448948360
Pt              -0.0008546035        1.9682240307       -3.8742975101
Pt              -0.0023502124        3.8447484092       -5.7868748975
Pt              -2.0168247224        2.0411890388       -2.0174104457
Pt              -1.9704774057        3.8771432944       -0.0011550118
Pt              -0.0021459417        1.9611053827        0.0003404433
Pt               0.0142468038        3.8909567914       -1.9704557825
Pt              -2.0402746083        2.0232826922        2.0232826922
Pt              -2.1215455318        4.0481891173        4.0481891173
Pt              -0.0031259938        1.9666300671        3.8762606530
Pt              -0.0031259938        3.8762606530        1.9666300671
Pt              -1.9532039119        1.9479174955        5.8356871397
Pt              -0.0010210694        3.8387507073        5.7865923656
Pt               0.0029324865        5.7969492062       -3.8443122654
Pt              -1.9478713370        5.8379598776       -1.9523546414
Pt               0.0001853617        5.9208881026        0.0026606928
Pt              -1.9532039119        5.8356871397        1.9479174955
Pt              -0.0010210694        5.7865923656        3.8387507073
Pt               2.1197467551       -4.0470293031       -4.0470293031
Pt               1.9501216769       -5.8376589577       -1.9513083267
Pt               1.9681117869       -3.8779813619       -0.0014417632
Pt               3.8413941847       -5.7885474489        0.0000802217
Pt               4.0486046943       -4.0493078560       -2.1218024536
Pt               1.9461642265       -5.8360316945        1.9474362053
Pt               2.1207388251       -4.0545979795        4.0508300507
Pt               4.0470457001       -4.0492247317        2.1220808265
Pt               1.9501216769       -1.9513083267       -5.8376589577
Pt               1.9681117869       -0.0014417632       -3.8779813619
Pt               4.0486046943       -2.1218024536       -4.0493078560
Pt               3.8413941847        0.0000802217       -5.7885474489
Pt               2.0297252683       -2.0310001317       -2.0310001317
Pt               1.9623922910        0.0007198463        0.0007198463
Pt               3.8769861299       -1.9689415812        0.0006140184
Pt               3.8769861299        0.0006140184       -1.9689415812
Pt               2.0309311613       -2.0299308556        2.0324023425
Pt               1.9727002520        0.0060210999        3.8796085620
Pt               4.0482340979       -2.1212194804        4.0486315218
Pt               3.8790575435        0.0003027627        1.9692622238
Pt               1.9537050202       -1.9509395945        5.8382413502
Pt               3.8430324917       -0.0028426271        5.7926422454
Pt               1.9461642265        1.9474362053       -5.8360316945
Pt               2.1207388251        4.0508300507       -4.0545979795
Pt               4.0470457001        2.1220808265       -4.0492247317
Pt               2.0309311613        2.0324023425       -2.0299308556
Pt               1.9727002520        3.8796085620        0.0060210999
Pt               3.8790575435        1.9692622238        0.0003027627
Pt               4.0482340979        4.0486315218       -2.1212194804
Pt               2.0283071848        2.0297445772        2.0297445772
Pt               2.1201285827        4.0467773438        4.0467773438
Pt               4.0486524695        2.1192781822        4.0479290555
Pt               4.0486524695        4.0479290555        2.1192781822
Pt               1.9517052781        1.9506176548        5.8398429508
Pt               1.9537050202        5.8382413502       -1.9509395945
Pt               3.8430324917        5.7926422454       -0.0028426271
Pt               1.9517052781        5.8398429508        1.9506176548
Pt               5.7892775209       -3.8404093494       -0.0010896412
Pt               5.7892775209       -0.0010896412       -3.8404093494
Pt               5.8372294389       -1.9499217856       -1.9499217856
Pt               5.9169005933        0.0001690924        0.0001690924
Pt               5.8371468760       -1.9509708396        1.9502687716
Pt               5.7888884011        0.0010321899        3.8425549135
Pt               5.8371468760        1.9502687716       -1.9509708396
Pt               5.7888884011        3.8425549135        0.0010321899
Pt               5.8409180886        1.9494804913        1.9494804913
H               -7.2919675361       -2.5342736686       -2.5342736686
End final coordinates



     Writing all to output data dir ./out/calc.save/ :
     XML data file, charge density, pseudopotentials, collected wavefunctions
 
     init_run     :     97.21s CPU    111.27s WALL (       1 calls)
     electrons    : 405398.56s CPU 410354.21s WALL (      10 calls)
     update_pot   :     67.86s CPU     75.48s WALL (       9 calls)
     forces       :    452.59s CPU    471.84s WALL (      10 calls)

     Called by init_run:
     wfcinit      :     74.51s CPU     77.56s WALL (       1 calls)
     wfcinit:atom :      0.27s CPU      0.45s WALL (       2 calls)
     wfcinit:wfcr :     72.21s CPU     74.85s WALL (       2 calls)
     potinit      :      8.92s CPU     19.25s WALL (       1 calls)
     hinit0       :      5.38s CPU      5.59s WALL (       1 calls)

     Called by electrons:
     c_bands      : 398947.39s CPU 403477.78s WALL (     141 calls)
     sum_band     :   4545.48s CPU   4724.69s WALL (     141 calls)
     v_of_rho     :   1005.63s CPU   1123.94s WALL (     143 calls)
     v_h          :     15.06s CPU     16.37s WALL (     143 calls)
     v_xc         :   1059.78s CPU   1185.34s WALL (     153 calls)
     newd         :    460.92s CPU    515.00s WALL (     143 calls)
     mix_rho      :    507.79s CPU    551.68s WALL (     141 calls)

     Called by c_bands:
     init_us_2    :    180.86s CPU    182.77s WALL (     586 calls)
     rcgdiagg     : 391210.11s CPU 395467.45s WALL (     305 calls)
     wfcrot       :   7658.25s CPU   7928.71s WALL (     271 calls)

     Called by sum_band:
     sum_band:wei :      0.45s CPU      0.46s WALL (     141 calls)
     sum_band:loo :   3897.48s CPU   4023.07s WALL (     141 calls)
     sum_band:buf :     31.25s CPU     31.60s WALL (     282 calls)
     sum_band:ini :     87.37s CPU     88.20s WALL (     282 calls)
     sum_band:cal :    946.69s CPU    952.03s WALL (     282 calls)
     sum_band:bec :      2.78s CPU      2.80s WALL (     282 calls)
     addusdens    :    623.18s CPU    672.06s WALL (     141 calls)
                                        0.00s GPU  (     141 calls)
     addusd:skk   :     24.84s CPU     43.07s WALL (     282 calls)
                                        0.00s GPU  (     282 calls)

     Called by *cgdiagg:
     h_psi        : 162461.74s CPU 165213.92s WALL (  981668 calls)
     s_psi        : 130734.68s CPU 131690.50s WALL ( 1963065 calls)

     Called by h_psi:
     h_psi:calbec :  68773.23s CPU  69315.22s WALL (  981668 calls)
     vloc_psi     :  27087.19s CPU  28823.84s WALL (  981668 calls)
     add_vuspsi   :  66506.02s CPU  66982.26s WALL (  981668 calls)
     hs_1psi      : 221298.26s CPU 224279.64s WALL (  981397 calls)
     s_1psi       : 133288.90s CPU 134285.92s WALL (  981397 calls)

     General routines
     calbec       : 137636.94s CPU 138704.75s WALL ( 1963427 calls)
     fft          :    602.31s CPU    691.60s WALL (   10371 calls)
     ffts         :    246.67s CPU    287.41s WALL (   15556 calls)
     fftw         :  15728.53s CPU  17427.22s WALL ( 2423142 calls)
     interpolate  :     26.33s CPU     30.76s WALL (     286 calls)
 
     Parallel routines
 
     PWSCF        :   4d16h48m CPU   4d18h14m WALL

 
   This run was terminated on:   5:15:27   3May2025            

=------------------------------------------------------------------------------=
   JOB DONE.
=------------------------------------------------------------------------------=
