
     Program PWSCF v.7.3.1 starts on 28Apr2025 at 11: 1:23 

     This program is part of the open-source Quantum ESPRESSO suite
     for quantum simulation of materials; please cite
         "P. Giannozzi et al., J. Phys.:Condens. Matter 21 395502 (2009);
         "P. Giannozzi et al., J. Phys.:Condens. Matter 29 465901 (2017);
         "P. Giannozzi et al., J. Chem. Phys. 152 154105 (2020);
          URL http://www.quantum-espresso.org", 
     in publications or presentations arising from this work. More details at
     http://www.quantum-espresso.org/quote

     Parallel version (MPI), running on    36 processors

     MPI processes distributed on     1 nodes
     153387 MiB available memory on the printing compute node when the environment starts
 
     Reading input from espresso.pwi
Warning: card   &CELL ignored
Warning: card      CELL_DOFREE = 'IBRAV' ignored
Warning: card / ignored

     Current dimensions of program PWSCF are:
     Max number of different atomic species (ntypx) = 10
     Max number of k-points (npk) =  40000
     Max angular momentum in pseudopotentials (lmaxx) =  4

     IMPORTANT: XC functional enforced from input :
     Exchange-correlation= RVV10
                           (   1   4  13   4  26   0   0)
     Any further DFT definition will be discarded
     Please, verify this is what you really want


     gamma-point specific algorithms are used
     Message from routine setup:
     using ibrav=0 with symmetry is DISCOURAGED, use correct ibrav instead
 
     R & G space division:  proc/nbgrp/npool/nimage =      36
     Subspace diagonalization in iterative solution of the eigenvalue problem:
     one sub-group per band group will be used
     scalapack distributed-memory algorithm (size of sub-group:  6*  6 procs)

 
     Parallelization info
     --------------------
     sticks:   dense  smooth     PW     G-vecs:    dense   smooth      PW
     Min        2366    1183    295               520102   183878   22972
     Max        2368    1188    298               520116   183884   22980
     Sum       85225   42641  10669             18723953  6619737  827137
 
     Using Slab Decomposition
 

     Title: 
     calc                                                                       


     bravais-lattice index     =            0
     lattice parameter (alat)  =      47.2432  a.u.
     unit-cell volume          =  105442.7265 (a.u.)^3
     number of atoms/cell      =          117
     number of atomic types    =            2
     number of electrons       =      1857.00
     number of Kohn-Sham states=         1115
     kinetic-energy cutoff     =      60.0000  Ry
     charge density cutoff     =     480.0000  Ry
     scf convergence threshold =      1.0E-06
     mixing beta               =       0.1000
     number of iterations used =            8  local-TF  mixing
     energy convergence thresh.=      1.0E-04
     force convergence thresh. =      1.0E-03
     Exchange-correlation= RVV10
                           (   1   4  13   4  26   0   0)
     nstep                     =        10000


     celldm(1)=  47.243153  celldm(2)=   0.000000  celldm(3)=   0.000000
     celldm(4)=   0.000000  celldm(5)=   0.000000  celldm(6)=   0.000000

     crystal axes: (cart. coord. in units of alat)
               a(1) = (   1.000000   0.000000   0.000000 )  
               a(2) = (   0.000000   1.000000   0.000000 )  
               a(3) = (   0.000000   0.000000   1.000000 )  

     reciprocal axes: (cart. coord. in units 2 pi/alat)
               b(1) = (  1.000000  0.000000  0.000000 )  
               b(2) = (  0.000000  1.000000  0.000000 )  
               b(3) = (  0.000000  0.000000  1.000000 )  


     PseudoPot. # 1 for Pt read from file:
     /home/james/work/espresso/SSSP_1.3.0_PBE_efficiency/pt_pbe_v1.4.uspp.F.UPF
     MD5 check sum: f09d6de1a584b5a045c4fc126da2d0c4
     Pseudo is Ultrasoft + core correction, Zval = 16.0
     Generated by new atomic code, or converted to UPF format
     Using radial grid of  985 points,  6 beta functions with: 
                l(1) =   0
                l(2) =   0
                l(3) =   1
                l(4) =   1
                l(5) =   2
                l(6) =   2
     Q(r) pseudized with  8 coefficients,  rinner =    1.300   1.300   1.300
                                                       1.300   1.300

     PseudoPot. # 2 for H  read from file:
     /home/james/work/espresso/SSSP_1.3.0_PBE_efficiency/H.pbe-rrkjus_psl.1.0.0.UPF
     MD5 check sum: f52b6d4d1c606e5624b1dc7b2218f220
     Pseudo is Ultrasoft, Zval =  1.0
     Generated using "atomic" code by A. Dal Corso  v.5.1
     Using radial grid of  929 points,  2 beta functions with: 
                l(1) =   0
                l(2) =   0
     Q(r) pseudized with 0 coefficients 


     atomic species   valence    mass     pseudopotential
     Pt               16.00   195.08400     Pt( 1.00)
     H                 1.00     1.00800     H ( 1.00)

     Starting magnetic structure 
     atomic species   magnetization
     Pt              0.010
     H               0.020

      2 Sym. Ops. (no inversion) found


                                    s                        frac. trans.

      isym =  1     identity                                     

 cryst.   s( 1) = (     1          0          0      )
                  (     0          1          0      )
                  (     0          0          1      )

 cart.    s( 1) = (  1.0000000  0.0000000  0.0000000 )
                  (  0.0000000  1.0000000  0.0000000 )
                  (  0.0000000  0.0000000  1.0000000 )


      isym =  2     inv. 180 deg rotation - cart. axis [0,1,-1]  

 cryst.   s( 2) = (     1          0          0      )
                  (     0          0          1      )
                  (     0          1          0      )

 cart.    s( 2) = (  1.0000000  0.0000000  0.0000000 )
                  (  0.0000000  0.0000000  1.0000000 )
                  (  0.0000000  1.0000000  0.0000000 )


   Cartesian axes

     site n.     atom                  positions (alat units)
         1        Pt     tau(   1) = (  -0.2317675  -0.1538076   0.0000000  )
         2        Pt     tau(   2) = (  -0.1538076  -0.2317675   0.0000000  )
         3        Pt     tau(   3) = (  -0.1617552  -0.1617552  -0.0847262  )
         4        Pt     tau(   4) = (  -0.1617552  -0.1617552   0.0847262  )
         5        Pt     tau(   5) = (  -0.2317675   0.0000000  -0.1538076  )
         6        Pt     tau(   6) = (  -0.1617552  -0.0847262  -0.1617552  )
         7        Pt     tau(   7) = (  -0.1538076   0.0000000  -0.2317675  )
         8        Pt     tau(   8) = (  -0.2338884  -0.0780549  -0.0780549  )
         9        Pt     tau(   9) = (  -0.2370085   0.0000000   0.0000000  )
        10        Pt     tau(  10) = (  -0.1554443  -0.0788784   0.0000000  )
        11        Pt     tau(  11) = (  -0.1554443   0.0000000  -0.0788784  )
        12        Pt     tau(  12) = (  -0.2338884  -0.0780549   0.0780549  )
        13        Pt     tau(  13) = (  -0.2317675   0.0000000   0.1538076  )
        14        Pt     tau(  14) = (  -0.1617552  -0.0847262   0.1617552  )
        15        Pt     tau(  15) = (  -0.1554443   0.0000000   0.0788784  )
        16        Pt     tau(  16) = (  -0.1538076   0.0000000   0.2317675  )
        17        Pt     tau(  17) = (  -0.1617552   0.0847262  -0.1617552  )
        18        Pt     tau(  18) = (  -0.2338884   0.0780549  -0.0780549  )
        19        Pt     tau(  19) = (  -0.2317675   0.1538076   0.0000000  )
        20        Pt     tau(  20) = (  -0.1554443   0.0788784   0.0000000  )
        21        Pt     tau(  21) = (  -0.1617552   0.1617552  -0.0847262  )
        22        Pt     tau(  22) = (  -0.2338884   0.0780549   0.0780549  )
        23        Pt     tau(  23) = (  -0.1617552   0.0847262   0.1617552  )
        24        Pt     tau(  24) = (  -0.1617552   0.1617552   0.0847262  )
        25        Pt     tau(  25) = (  -0.1538076   0.2317675   0.0000000  )
        26        Pt     tau(  26) = (  -0.0847262  -0.1617552  -0.1617552  )
        27        Pt     tau(  27) = (   0.0000000  -0.2317675  -0.1538076  )
        28        Pt     tau(  28) = (   0.0000000  -0.1538076  -0.2317675  )
        29        Pt     tau(  29) = (  -0.0780549  -0.2338884  -0.0780549  )
        30        Pt     tau(  30) = (  -0.0788784  -0.1554443   0.0000000  )
        31        Pt     tau(  31) = (   0.0000000  -0.2370085   0.0000000  )
        32        Pt     tau(  32) = (   0.0000000  -0.1554443  -0.0788784  )
        33        Pt     tau(  33) = (  -0.0780549  -0.2338884   0.0780549  )
        34        Pt     tau(  34) = (  -0.0847262  -0.1617552   0.1617552  )
        35        Pt     tau(  35) = (   0.0000000  -0.2317675   0.1538076  )
        36        Pt     tau(  36) = (   0.0000000  -0.1554443   0.0788784  )
        37        Pt     tau(  37) = (   0.0000000  -0.1538076   0.2317675  )
        38        Pt     tau(  38) = (  -0.0780549  -0.0780549  -0.2338884  )
        39        Pt     tau(  39) = (  -0.0788784   0.0000000  -0.1554443  )
        40        Pt     tau(  40) = (   0.0000000  -0.0788784  -0.1554443  )
        41        Pt     tau(  41) = (   0.0000000   0.0000000  -0.2370085  )
        42        Pt     tau(  42) = (  -0.0808740  -0.0808740  -0.0808740  )
        43        Pt     tau(  43) = (  -0.0786873   0.0000000   0.0000000  )
        44        Pt     tau(  44) = (   0.0000000  -0.0786873   0.0000000  )
        45        Pt     tau(  45) = (   0.0000000   0.0000000  -0.0786873  )
        46        Pt     tau(  46) = (  -0.0808740  -0.0808740   0.0808740  )
        47        Pt     tau(  47) = (  -0.0788784   0.0000000   0.1554443  )
        48        Pt     tau(  48) = (   0.0000000  -0.0788784   0.1554443  )
        49        Pt     tau(  49) = (   0.0000000   0.0000000   0.0786873  )
        50        Pt     tau(  50) = (  -0.0780549  -0.0780549   0.2338884  )
        51        Pt     tau(  51) = (   0.0000000   0.0000000   0.2370085  )
        52        Pt     tau(  52) = (  -0.0780549   0.0780549  -0.2338884  )
        53        Pt     tau(  53) = (  -0.0847262   0.1617552  -0.1617552  )
        54        Pt     tau(  54) = (   0.0000000   0.0788784  -0.1554443  )
        55        Pt     tau(  55) = (   0.0000000   0.1538076  -0.2317675  )
        56        Pt     tau(  56) = (  -0.0808740   0.0808740  -0.0808740  )
        57        Pt     tau(  57) = (  -0.0788784   0.1554443   0.0000000  )
        58        Pt     tau(  58) = (   0.0000000   0.0786873   0.0000000  )
        59        Pt     tau(  59) = (   0.0000000   0.1554443  -0.0788784  )
        60        Pt     tau(  60) = (  -0.0808740   0.0808740   0.0808740  )
        61        Pt     tau(  61) = (  -0.0847262   0.1617552   0.1617552  )
        62        Pt     tau(  62) = (   0.0000000   0.0788784   0.1554443  )
        63        Pt     tau(  63) = (   0.0000000   0.1554443   0.0788784  )
        64        Pt     tau(  64) = (  -0.0780549   0.0780549   0.2338884  )
        65        Pt     tau(  65) = (   0.0000000   0.1538076   0.2317675  )
        66        Pt     tau(  66) = (   0.0000000   0.2317675  -0.1538076  )
        67        Pt     tau(  67) = (  -0.0780549   0.2338884  -0.0780549  )
        68        Pt     tau(  68) = (   0.0000000   0.2370085   0.0000000  )
        69        Pt     tau(  69) = (  -0.0780549   0.2338884   0.0780549  )
        70        Pt     tau(  70) = (   0.0000000   0.2317675   0.1538076  )
        71        Pt     tau(  71) = (   0.0847262  -0.1617552  -0.1617552  )
        72        Pt     tau(  72) = (   0.0780549  -0.2338884  -0.0780549  )
        73        Pt     tau(  73) = (   0.0788784  -0.1554443   0.0000000  )
        74        Pt     tau(  74) = (   0.1538076  -0.2317675   0.0000000  )
        75        Pt     tau(  75) = (   0.1617552  -0.1617552  -0.0847262  )
        76        Pt     tau(  76) = (   0.0780549  -0.2338884   0.0780549  )
        77        Pt     tau(  77) = (   0.0847262  -0.1617552   0.1617552  )
        78        Pt     tau(  78) = (   0.1617552  -0.1617552   0.0847262  )
        79        Pt     tau(  79) = (   0.0780549  -0.0780549  -0.2338884  )
        80        Pt     tau(  80) = (   0.0788784   0.0000000  -0.1554443  )
        81        Pt     tau(  81) = (   0.1617552  -0.0847262  -0.1617552  )
        82        Pt     tau(  82) = (   0.1538076   0.0000000  -0.2317675  )
        83        Pt     tau(  83) = (   0.0808740  -0.0808740  -0.0808740  )
        84        Pt     tau(  84) = (   0.0786873   0.0000000   0.0000000  )
        85        Pt     tau(  85) = (   0.1554443  -0.0788784   0.0000000  )
        86        Pt     tau(  86) = (   0.1554443   0.0000000  -0.0788784  )
        87        Pt     tau(  87) = (   0.0808740  -0.0808740   0.0808740  )
        88        Pt     tau(  88) = (   0.0788784   0.0000000   0.1554443  )
        89        Pt     tau(  89) = (   0.1617552  -0.0847262   0.1617552  )
        90        Pt     tau(  90) = (   0.1554443   0.0000000   0.0788784  )
        91        Pt     tau(  91) = (   0.0780549  -0.0780549   0.2338884  )
        92        Pt     tau(  92) = (   0.1538076   0.0000000   0.2317675  )
        93        Pt     tau(  93) = (   0.0780549   0.0780549  -0.2338884  )
        94        Pt     tau(  94) = (   0.0847262   0.1617552  -0.1617552  )
        95        Pt     tau(  95) = (   0.1617552   0.0847262  -0.1617552  )
        96        Pt     tau(  96) = (   0.0808740   0.0808740  -0.0808740  )
        97        Pt     tau(  97) = (   0.0788784   0.1554443   0.0000000  )
        98        Pt     tau(  98) = (   0.1554443   0.0788784   0.0000000  )
        99        Pt     tau(  99) = (   0.1617552   0.1617552  -0.0847262  )
       100        Pt     tau( 100) = (   0.0808740   0.0808740   0.0808740  )
       101        Pt     tau( 101) = (   0.0847262   0.1617552   0.1617552  )
       102        Pt     tau( 102) = (   0.1617552   0.0847262   0.1617552  )
       103        Pt     tau( 103) = (   0.1617552   0.1617552   0.0847262  )
       104        Pt     tau( 104) = (   0.0780549   0.0780549   0.2338884  )
       105        Pt     tau( 105) = (   0.0780549   0.2338884  -0.0780549  )
       106        Pt     tau( 106) = (   0.1538076   0.2317675   0.0000000  )
       107        Pt     tau( 107) = (   0.0780549   0.2338884   0.0780549  )
       108        Pt     tau( 108) = (   0.2317675  -0.1538076   0.0000000  )
       109        Pt     tau( 109) = (   0.2317675   0.0000000  -0.1538076  )
       110        Pt     tau( 110) = (   0.2338884  -0.0780549  -0.0780549  )
       111        Pt     tau( 111) = (   0.2370085   0.0000000   0.0000000  )
       112        Pt     tau( 112) = (   0.2338884  -0.0780549   0.0780549  )
       113        Pt     tau( 113) = (   0.2317675   0.0000000   0.1538076  )
       114        Pt     tau( 114) = (   0.2338884   0.0780549  -0.0780549  )
       115        Pt     tau( 115) = (   0.2317675   0.1538076   0.0000000  )
       116        Pt     tau( 116) = (   0.2338884   0.0780549   0.0780549  )
       117        H      tau( 117) = (  -0.2931468  -0.0506656  -0.0506656  )

   Crystallographic axes

     site n.     atom                  positions (cryst. coord.)
         1        Pt     tau(   1) = ( -0.2317675 -0.1538076  0.0000000  )
         2        Pt     tau(   2) = ( -0.1538076 -0.2317675  0.0000000  )
         3        Pt     tau(   3) = ( -0.1617552 -0.1617552 -0.0847262  )
         4        Pt     tau(   4) = ( -0.1617552 -0.1617552  0.0847262  )
         5        Pt     tau(   5) = ( -0.2317675  0.0000000 -0.1538076  )
         6        Pt     tau(   6) = ( -0.1617552 -0.0847262 -0.1617552  )
         7        Pt     tau(   7) = ( -0.1538076  0.0000000 -0.2317675  )
         8        Pt     tau(   8) = ( -0.2338884 -0.0780549 -0.0780549  )
         9        Pt     tau(   9) = ( -0.2370085  0.0000000  0.0000000  )
        10        Pt     tau(  10) = ( -0.1554443 -0.0788784  0.0000000  )
        11        Pt     tau(  11) = ( -0.1554443  0.0000000 -0.0788784  )
        12        Pt     tau(  12) = ( -0.2338884 -0.0780549  0.0780549  )
        13        Pt     tau(  13) = ( -0.2317675  0.0000000  0.1538076  )
        14        Pt     tau(  14) = ( -0.1617552 -0.0847262  0.1617552  )
        15        Pt     tau(  15) = ( -0.1554443  0.0000000  0.0788784  )
        16        Pt     tau(  16) = ( -0.1538076  0.0000000  0.2317675  )
        17        Pt     tau(  17) = ( -0.1617552  0.0847262 -0.1617552  )
        18        Pt     tau(  18) = ( -0.2338884  0.0780549 -0.0780549  )
        19        Pt     tau(  19) = ( -0.2317675  0.1538076  0.0000000  )
        20        Pt     tau(  20) = ( -0.1554443  0.0788784  0.0000000  )
        21        Pt     tau(  21) = ( -0.1617552  0.1617552 -0.0847262  )
        22        Pt     tau(  22) = ( -0.2338884  0.0780549  0.0780549  )
        23        Pt     tau(  23) = ( -0.1617552  0.0847262  0.1617552  )
        24        Pt     tau(  24) = ( -0.1617552  0.1617552  0.0847262  )
        25        Pt     tau(  25) = ( -0.1538076  0.2317675  0.0000000  )
        26        Pt     tau(  26) = ( -0.0847262 -0.1617552 -0.1617552  )
        27        Pt     tau(  27) = (  0.0000000 -0.2317675 -0.1538076  )
        28        Pt     tau(  28) = (  0.0000000 -0.1538076 -0.2317675  )
        29        Pt     tau(  29) = ( -0.0780549 -0.2338884 -0.0780549  )
        30        Pt     tau(  30) = ( -0.0788784 -0.1554443  0.0000000  )
        31        Pt     tau(  31) = (  0.0000000 -0.2370085  0.0000000  )
        32        Pt     tau(  32) = (  0.0000000 -0.1554443 -0.0788784  )
        33        Pt     tau(  33) = ( -0.0780549 -0.2338884  0.0780549  )
        34        Pt     tau(  34) = ( -0.0847262 -0.1617552  0.1617552  )
        35        Pt     tau(  35) = (  0.0000000 -0.2317675  0.1538076  )
        36        Pt     tau(  36) = (  0.0000000 -0.1554443  0.0788784  )
        37        Pt     tau(  37) = (  0.0000000 -0.1538076  0.2317675  )
        38        Pt     tau(  38) = ( -0.0780549 -0.0780549 -0.2338884  )
        39        Pt     tau(  39) = ( -0.0788784  0.0000000 -0.1554443  )
        40        Pt     tau(  40) = (  0.0000000 -0.0788784 -0.1554443  )
        41        Pt     tau(  41) = (  0.0000000  0.0000000 -0.2370085  )
        42        Pt     tau(  42) = ( -0.0808740 -0.0808740 -0.0808740  )
        43        Pt     tau(  43) = ( -0.0786873  0.0000000  0.0000000  )
        44        Pt     tau(  44) = (  0.0000000 -0.0786873  0.0000000  )
        45        Pt     tau(  45) = (  0.0000000  0.0000000 -0.0786873  )
        46        Pt     tau(  46) = ( -0.0808740 -0.0808740  0.0808740  )
        47        Pt     tau(  47) = ( -0.0788784  0.0000000  0.1554443  )
        48        Pt     tau(  48) = (  0.0000000 -0.0788784  0.1554443  )
        49        Pt     tau(  49) = (  0.0000000  0.0000000  0.0786873  )
        50        Pt     tau(  50) = ( -0.0780549 -0.0780549  0.2338884  )
        51        Pt     tau(  51) = (  0.0000000  0.0000000  0.2370085  )
        52        Pt     tau(  52) = ( -0.0780549  0.0780549 -0.2338884  )
        53        Pt     tau(  53) = ( -0.0847262  0.1617552 -0.1617552  )
        54        Pt     tau(  54) = (  0.0000000  0.0788784 -0.1554443  )
        55        Pt     tau(  55) = (  0.0000000  0.1538076 -0.2317675  )
        56        Pt     tau(  56) = ( -0.0808740  0.0808740 -0.0808740  )
        57        Pt     tau(  57) = ( -0.0788784  0.1554443  0.0000000  )
        58        Pt     tau(  58) = (  0.0000000  0.0786873  0.0000000  )
        59        Pt     tau(  59) = (  0.0000000  0.1554443 -0.0788784  )
        60        Pt     tau(  60) = ( -0.0808740  0.0808740  0.0808740  )
        61        Pt     tau(  61) = ( -0.0847262  0.1617552  0.1617552  )
        62        Pt     tau(  62) = (  0.0000000  0.0788784  0.1554443  )
        63        Pt     tau(  63) = (  0.0000000  0.1554443  0.0788784  )
        64        Pt     tau(  64) = ( -0.0780549  0.0780549  0.2338884  )
        65        Pt     tau(  65) = (  0.0000000  0.1538076  0.2317675  )
        66        Pt     tau(  66) = (  0.0000000  0.2317675 -0.1538076  )
        67        Pt     tau(  67) = ( -0.0780549  0.2338884 -0.0780549  )
        68        Pt     tau(  68) = (  0.0000000  0.2370085  0.0000000  )
        69        Pt     tau(  69) = ( -0.0780549  0.2338884  0.0780549  )
        70        Pt     tau(  70) = (  0.0000000  0.2317675  0.1538076  )
        71        Pt     tau(  71) = (  0.0847262 -0.1617552 -0.1617552  )
        72        Pt     tau(  72) = (  0.0780549 -0.2338884 -0.0780549  )
        73        Pt     tau(  73) = (  0.0788784 -0.1554443  0.0000000  )
        74        Pt     tau(  74) = (  0.1538076 -0.2317675  0.0000000  )
        75        Pt     tau(  75) = (  0.1617552 -0.1617552 -0.0847262  )
        76        Pt     tau(  76) = (  0.0780549 -0.2338884  0.0780549  )
        77        Pt     tau(  77) = (  0.0847262 -0.1617552  0.1617552  )
        78        Pt     tau(  78) = (  0.1617552 -0.1617552  0.0847262  )
        79        Pt     tau(  79) = (  0.0780549 -0.0780549 -0.2338884  )
        80        Pt     tau(  80) = (  0.0788784  0.0000000 -0.1554443  )
        81        Pt     tau(  81) = (  0.1617552 -0.0847262 -0.1617552  )
        82        Pt     tau(  82) = (  0.1538076  0.0000000 -0.2317675  )
        83        Pt     tau(  83) = (  0.0808740 -0.0808740 -0.0808740  )
        84        Pt     tau(  84) = (  0.0786873  0.0000000  0.0000000  )
        85        Pt     tau(  85) = (  0.1554443 -0.0788784  0.0000000  )
        86        Pt     tau(  86) = (  0.1554443  0.0000000 -0.0788784  )
        87        Pt     tau(  87) = (  0.0808740 -0.0808740  0.0808740  )
        88        Pt     tau(  88) = (  0.0788784  0.0000000  0.1554443  )
        89        Pt     tau(  89) = (  0.1617552 -0.0847262  0.1617552  )
        90        Pt     tau(  90) = (  0.1554443  0.0000000  0.0788784  )
        91        Pt     tau(  91) = (  0.0780549 -0.0780549  0.2338884  )
        92        Pt     tau(  92) = (  0.1538076  0.0000000  0.2317675  )
        93        Pt     tau(  93) = (  0.0780549  0.0780549 -0.2338884  )
        94        Pt     tau(  94) = (  0.0847262  0.1617552 -0.1617552  )
        95        Pt     tau(  95) = (  0.1617552  0.0847262 -0.1617552  )
        96        Pt     tau(  96) = (  0.0808740  0.0808740 -0.0808740  )
        97        Pt     tau(  97) = (  0.0788784  0.1554443  0.0000000  )
        98        Pt     tau(  98) = (  0.1554443  0.0788784  0.0000000  )
        99        Pt     tau(  99) = (  0.1617552  0.1617552 -0.0847262  )
       100        Pt     tau( 100) = (  0.0808740  0.0808740  0.0808740  )
       101        Pt     tau( 101) = (  0.0847262  0.1617552  0.1617552  )
       102        Pt     tau( 102) = (  0.1617552  0.0847262  0.1617552  )
       103        Pt     tau( 103) = (  0.1617552  0.1617552  0.0847262  )
       104        Pt     tau( 104) = (  0.0780549  0.0780549  0.2338884  )
       105        Pt     tau( 105) = (  0.0780549  0.2338884 -0.0780549  )
       106        Pt     tau( 106) = (  0.1538076  0.2317675  0.0000000  )
       107        Pt     tau( 107) = (  0.0780549  0.2338884  0.0780549  )
       108        Pt     tau( 108) = (  0.2317675 -0.1538076  0.0000000  )
       109        Pt     tau( 109) = (  0.2317675  0.0000000 -0.1538076  )
       110        Pt     tau( 110) = (  0.2338884 -0.0780549 -0.0780549  )
       111        Pt     tau( 111) = (  0.2370085  0.0000000  0.0000000  )
       112        Pt     tau( 112) = (  0.2338884 -0.0780549  0.0780549  )
       113        Pt     tau( 113) = (  0.2317675  0.0000000  0.1538076  )
       114        Pt     tau( 114) = (  0.2338884  0.0780549 -0.0780549  )
       115        Pt     tau( 115) = (  0.2317675  0.1538076  0.0000000  )
       116        Pt     tau( 116) = (  0.2338884  0.0780549  0.0780549  )
       117        H      tau( 117) = ( -0.2931468 -0.0506656 -0.0506656  )

     number of k points=     1  Gaussian smearing, width (Ry)=  0.0100
                       cart. coord. in units 2pi/alat
        k(    1) = (   0.0000000   0.0000000   0.0000000), wk =   1.0000000

                       cryst. coord.
        k(    1) = (   0.0000000   0.0000000   0.0000000), wk =   1.0000000

     Dense  grid:  9361977 G-vectors     FFT dimensions: ( 360, 360, 360)

     Smooth grid:  3309869 G-vectors     FFT dimensions: ( 240, 240, 240)

     Dynamical RAM for                 wfc:     195.54 MB

     Dynamical RAM for     wfc (w. buffer):     586.61 MB

     Dynamical RAM for           str. fact:       7.94 MB

     Dynamical RAM for           local pot:       0.00 MB

     Dynamical RAM for          nlocal pot:     366.52 MB

     Dynamical RAM for                qrad:       3.52 MB

     Dynamical RAM for          rho,v,vnew:      83.14 MB

     Dynamical RAM for               rhoin:      27.71 MB

     Dynamical RAM for            rho*nmix:     126.98 MB

     Dynamical RAM for           G-vectors:      15.58 MB

     Dynamical RAM for          h,s,v(r/c):       0.78 MB

     Dynamical RAM for          <psi|beta>:      17.78 MB

     Dynamical RAM for      wfcinit/wfcrot:     419.54 MB

     Dynamical RAM for           addusdens:    1202.36 MB

     Dynamical RAM for          addusforce:    2115.94 MB

     Estimated static dynamical RAM per process >       1.14 GB

     Estimated max dynamical RAM per process >       3.33 GB

     Estimated total dynamical RAM >     119.71 GB

     Atomic positions and unit cell read from directory:
     ./out/calc.save/
     Atomic positions from file used, from input discarded
 
     Generating pointlists ...
     new r_m :   0.0283 (alat units)  1.3374 (a.u.) for type    1
     new r_m :   0.0283 (alat units)  1.3374 (a.u.) for type    2

     The initial density is read from file :
     ./out/calc.save/charge-density


     negative rho (up, down):  1.021E+01 1.020E+01


---------------------------------------------------------------------------------
Carrying out rVV10 run using the following parameters:
Nqs =      20    Nr_points =    1024   r_max =   100.000
b_value =  6.30000    beta =  0.00901
     q_mesh =  0.00010000  0.00030000  0.00058939  0.00100810
               0.00161396  0.00249058  0.00375900  0.00559430
               0.00824984  0.01209221  0.01765183  0.02569619
               0.03733578  0.05417739  0.07854596  0.11380545
               0.16482331  0.23864234  0.34545298  0.50000000

Gradients computed in Reciprocal space

---------------------------------------------------------------------------------




     ----------------------------------------------------------------

     Non-local correlation energy =             18.770751662615410

     ----------------------------------------------------------------

     Cannot read wfcs: file not found
     Starting wfcs are 1393 randomized atomic wfcs

     total cpu time spent up to now is      112.2 secs

     Self-consistent Calculation

     iteration #  1     ecut=    60.00 Ry     beta= 0.10
     CG style diagonalization

---- Real-time Memory Report at c_bands before calling an iterative solver
             0 MiB given to the printing process from OS
             0 MiB allocation reported by mallinfo(arena+hblkhd)
        107516 MiB available memory on the node where the printing process lives
------------------
     c_bands:  2 eigenvalues not converged
     c_bands:  4 eigenvalues not converged
     ethr =  1.00E-05,  avg # of iterations = 14.9

     negative rho (up, down):  1.021E+01 1.020E+01


     ----------------------------------------------------------------

     Non-local correlation energy =             18.769689757945763

     ----------------------------------------------------------------


     total cpu time spent up to now is    11616.0 secs

     total energy              =  -24449.70386077 Ry
     estimated scf accuracy    <     186.72888664 Ry

     total magnetization       =     0.95 Bohr mag/cell
     absolute magnetization    =     1.07 Bohr mag/cell

     iteration #  2     ecut=    60.00 Ry     beta= 0.10
     CG style diagonalization

---- Real-time Memory Report at c_bands before calling an iterative solver
             0 MiB given to the printing process from OS
             0 MiB allocation reported by mallinfo(arena+hblkhd)
        104852 MiB available memory on the node where the printing process lives
------------------
     ethr =  1.00E-02,  avg # of iterations =  3.0

     negative rho (up, down):  1.022E+01 1.021E+01


     ----------------------------------------------------------------

     Non-local correlation energy =             18.768544073024213

     ----------------------------------------------------------------


     total cpu time spent up to now is    13526.6 secs

     total energy              =  -24448.45799502 Ry
     estimated scf accuracy    <      75.22786898 Ry

     total magnetization       =     1.26 Bohr mag/cell
     absolute magnetization    =     1.38 Bohr mag/cell

     iteration #  3     ecut=    60.00 Ry     beta= 0.10
     CG style diagonalization

---- Real-time Memory Report at c_bands before calling an iterative solver
             0 MiB given to the printing process from OS
             0 MiB allocation reported by mallinfo(arena+hblkhd)
        104578 MiB available memory on the node where the printing process lives
------------------
     ethr =  4.05E-03,  avg # of iterations =  3.0

     negative rho (up, down):  1.023E+01 1.022E+01


     ----------------------------------------------------------------

     Non-local correlation energy =             18.768486727824094

     ----------------------------------------------------------------


     total cpu time spent up to now is    15438.4 secs

     total energy              =  -24449.05803412 Ry
     estimated scf accuracy    <       4.90887826 Ry

     total magnetization       =     1.31 Bohr mag/cell
     absolute magnetization    =     1.42 Bohr mag/cell

     iteration #  4     ecut=    60.00 Ry     beta= 0.10
     CG style diagonalization

---- Real-time Memory Report at c_bands before calling an iterative solver
             0 MiB given to the printing process from OS
             0 MiB allocation reported by mallinfo(arena+hblkhd)
        104309 MiB available memory on the node where the printing process lives
------------------
     ethr =  2.64E-04,  avg # of iterations =  3.0

     negative rho (up, down):  1.024E+01 1.022E+01


     ----------------------------------------------------------------

     Non-local correlation energy =             18.768368899143862

     ----------------------------------------------------------------


     total cpu time spent up to now is    17349.0 secs

     total energy              =  -24449.01332292 Ry
     estimated scf accuracy    <       1.93187155 Ry

     total magnetization       =     1.30 Bohr mag/cell
     absolute magnetization    =     1.41 Bohr mag/cell

     iteration #  5     ecut=    60.00 Ry     beta= 0.10
     CG style diagonalization

---- Real-time Memory Report at c_bands before calling an iterative solver
             0 MiB given to the printing process from OS
             0 MiB allocation reported by mallinfo(arena+hblkhd)
        104033 MiB available memory on the node where the printing process lives
------------------
     ethr =  1.04E-04,  avg # of iterations =  3.0

     negative rho (up, down):  1.024E+01 1.022E+01


     ----------------------------------------------------------------

     Non-local correlation energy =             18.768417135400238

     ----------------------------------------------------------------


     total cpu time spent up to now is    19280.0 secs

     total energy              =  -24449.03571955 Ry
     estimated scf accuracy    <       0.46720914 Ry

     total magnetization       =     1.25 Bohr mag/cell
     absolute magnetization    =     1.35 Bohr mag/cell

     iteration #  6     ecut=    60.00 Ry     beta= 0.10
     CG style diagonalization

---- Real-time Memory Report at c_bands before calling an iterative solver
             0 MiB given to the printing process from OS
             0 MiB allocation reported by mallinfo(arena+hblkhd)
        103802 MiB available memory on the node where the printing process lives
------------------
     c_bands:  2 eigenvalues not converged
     c_bands:  3 eigenvalues not converged
     ethr =  2.52E-05,  avg # of iterations =  3.2

     negative rho (up, down):  1.024E+01 1.023E+01


     ----------------------------------------------------------------

     Non-local correlation energy =             18.768525013329857

     ----------------------------------------------------------------


     total cpu time spent up to now is    21431.8 secs

     total energy              =  -24449.01347867 Ry
     estimated scf accuracy    <       0.24620407 Ry

     total magnetization       =     1.24 Bohr mag/cell
     absolute magnetization    =     1.34 Bohr mag/cell

     iteration #  7     ecut=    60.00 Ry     beta= 0.10
     CG style diagonalization

---- Real-time Memory Report at c_bands before calling an iterative solver
             0 MiB given to the printing process from OS
             0 MiB allocation reported by mallinfo(arena+hblkhd)
        103540 MiB available memory on the node where the printing process lives
------------------
     c_bands:  1 eigenvalues not converged
     ethr =  1.33E-05,  avg # of iterations =  3.1

     negative rho (up, down):  1.025E+01 1.024E+01


     ----------------------------------------------------------------

     Non-local correlation energy =             18.768792909931300

     ----------------------------------------------------------------


     total cpu time spent up to now is    23394.7 secs

     total energy              =  -24449.01006571 Ry
     estimated scf accuracy    <       0.06828577 Ry

     total magnetization       =     1.17 Bohr mag/cell
     absolute magnetization    =     1.27 Bohr mag/cell

     iteration #  8     ecut=    60.00 Ry     beta= 0.10
     CG style diagonalization

---- Real-time Memory Report at c_bands before calling an iterative solver
             0 MiB given to the printing process from OS
             0 MiB allocation reported by mallinfo(arena+hblkhd)
        103294 MiB available memory on the node where the printing process lives
------------------
     c_bands:  5 eigenvalues not converged
     c_bands:  3 eigenvalues not converged
     ethr =  3.68E-06,  avg # of iterations =  3.3

     negative rho (up, down):  1.025E+01 1.024E+01


     ----------------------------------------------------------------

     Non-local correlation energy =             18.769118093995296

     ----------------------------------------------------------------


     total cpu time spent up to now is    25588.9 secs

     total energy              =  -24449.00823280 Ry
     estimated scf accuracy    <       0.03172384 Ry

     total magnetization       =     1.10 Bohr mag/cell
     absolute magnetization    =     1.19 Bohr mag/cell

     iteration #  9     ecut=    60.00 Ry     beta= 0.10
     CG style diagonalization

---- Real-time Memory Report at c_bands before calling an iterative solver
             0 MiB given to the printing process from OS
             0 MiB allocation reported by mallinfo(arena+hblkhd)
        103033 MiB available memory on the node where the printing process lives
------------------
     c_bands:  2 eigenvalues not converged
     c_bands:  2 eigenvalues not converged
     ethr =  1.71E-06,  avg # of iterations =  3.1

     negative rho (up, down):  1.025E+01 1.024E+01


     ----------------------------------------------------------------

     Non-local correlation energy =             18.769385131536140

     ----------------------------------------------------------------


     total cpu time spent up to now is    27592.6 secs

     total energy              =  -24449.01015696 Ry
     estimated scf accuracy    <       0.00366288 Ry

     total magnetization       =     1.03 Bohr mag/cell
     absolute magnetization    =     1.11 Bohr mag/cell

     iteration # 10     ecut=    60.00 Ry     beta= 0.10
     CG style diagonalization

---- Real-time Memory Report at c_bands before calling an iterative solver
             0 MiB given to the printing process from OS
             0 MiB allocation reported by mallinfo(arena+hblkhd)
        102769 MiB available memory on the node where the printing process lives
------------------
     c_bands:  1 eigenvalues not converged
     ethr =  1.97E-07,  avg # of iterations =  3.5

     negative rho (up, down):  1.024E+01 1.023E+01


     ----------------------------------------------------------------

     Non-local correlation energy =             18.769415975378759

     ----------------------------------------------------------------


     total cpu time spent up to now is    29987.5 secs

     total energy              =  -24449.01061071 Ry
     estimated scf accuracy    <       0.00156631 Ry

     total magnetization       =     0.97 Bohr mag/cell
     absolute magnetization    =     1.05 Bohr mag/cell

     iteration # 11     ecut=    60.00 Ry     beta= 0.10
     CG style diagonalization

---- Real-time Memory Report at c_bands before calling an iterative solver
             0 MiB given to the printing process from OS
             0 MiB allocation reported by mallinfo(arena+hblkhd)
        102765 MiB available memory on the node where the printing process lives
------------------
     ethr =  8.43E-08,  avg # of iterations =  3.0

     negative rho (up, down):  1.023E+01 1.023E+01


     ----------------------------------------------------------------

     Non-local correlation energy =             18.769718694877756

     ----------------------------------------------------------------


     total cpu time spent up to now is    31897.9 secs

     total energy              =  -24449.01043596 Ry
     estimated scf accuracy    <       0.00171057 Ry

     total magnetization       =     0.96 Bohr mag/cell
     absolute magnetization    =     1.04 Bohr mag/cell

     iteration # 12     ecut=    60.00 Ry     beta= 0.10
     CG style diagonalization

---- Real-time Memory Report at c_bands before calling an iterative solver
             0 MiB given to the printing process from OS
             0 MiB allocation reported by mallinfo(arena+hblkhd)
        102744 MiB available memory on the node where the printing process lives
------------------
     c_bands:  1 eigenvalues not converged
     ethr =  8.43E-08,  avg # of iterations =  3.1

     negative rho (up, down):  1.023E+01 1.022E+01


     ----------------------------------------------------------------

     Non-local correlation energy =             18.770010954006931

     ----------------------------------------------------------------


     total cpu time spent up to now is    33954.7 secs

     total energy              =  -24449.01047307 Ry
     estimated scf accuracy    <       0.00081490 Ry

     total magnetization       =     0.88 Bohr mag/cell
     absolute magnetization    =     0.96 Bohr mag/cell

     iteration # 13     ecut=    60.00 Ry     beta= 0.10
     CG style diagonalization

---- Real-time Memory Report at c_bands before calling an iterative solver
             0 MiB given to the printing process from OS
             0 MiB allocation reported by mallinfo(arena+hblkhd)
        102737 MiB available memory on the node where the printing process lives
------------------
     c_bands:  1 eigenvalues not converged
     c_bands:  1 eigenvalues not converged
     ethr =  4.39E-08,  avg # of iterations =  3.1

     negative rho (up, down):  1.022E+01 1.021E+01


     ----------------------------------------------------------------

     Non-local correlation energy =             18.770126616137119

     ----------------------------------------------------------------


     total cpu time spent up to now is    36005.2 secs

     total energy              =  -24449.01055479 Ry
     estimated scf accuracy    <       0.00053088 Ry

     total magnetization       =     0.80 Bohr mag/cell
     absolute magnetization    =     0.86 Bohr mag/cell

     iteration # 14     ecut=    60.00 Ry     beta= 0.10
     CG style diagonalization

---- Real-time Memory Report at c_bands before calling an iterative solver
             0 MiB given to the printing process from OS
             0 MiB allocation reported by mallinfo(arena+hblkhd)
        102750 MiB available memory on the node where the printing process lives
------------------
     ethr =  2.86E-08,  avg # of iterations =  3.1

     negative rho (up, down):  1.022E+01 1.021E+01


     ----------------------------------------------------------------

     Non-local correlation energy =             18.770257443469845

     ----------------------------------------------------------------


     total cpu time spent up to now is    37976.2 secs

     total energy              =  -24449.01069181 Ry
     estimated scf accuracy    <       0.00019120 Ry

     total magnetization       =     0.75 Bohr mag/cell
     absolute magnetization    =     0.81 Bohr mag/cell

     iteration # 15     ecut=    60.00 Ry     beta= 0.10
     CG style diagonalization

---- Real-time Memory Report at c_bands before calling an iterative solver
             0 MiB given to the printing process from OS
             0 MiB allocation reported by mallinfo(arena+hblkhd)
        102764 MiB available memory on the node where the printing process lives
------------------
     c_bands:  2 eigenvalues not converged
     c_bands:  2 eigenvalues not converged
     ethr =  1.03E-08,  avg # of iterations =  3.8

     negative rho (up, down):  1.021E+01 1.021E+01


     ----------------------------------------------------------------

     Non-local correlation energy =             18.770306330208928

     ----------------------------------------------------------------


     total cpu time spent up to now is    40628.7 secs

     total energy              =  -24449.01070647 Ry
     estimated scf accuracy    <       0.00019423 Ry

     total magnetization       =     0.68 Bohr mag/cell
     absolute magnetization    =     0.73 Bohr mag/cell

     iteration # 16     ecut=    60.00 Ry     beta= 0.10
     CG style diagonalization

---- Real-time Memory Report at c_bands before calling an iterative solver
             0 MiB given to the printing process from OS
             0 MiB allocation reported by mallinfo(arena+hblkhd)
        102793 MiB available memory on the node where the printing process lives
------------------
     ethr =  1.03E-08,  avg # of iterations =  3.2

     negative rho (up, down):  1.021E+01 1.021E+01


     ----------------------------------------------------------------

     Non-local correlation energy =             18.770441191955619

     ----------------------------------------------------------------


     total cpu time spent up to now is    42689.1 secs

     total energy              =  -24449.01084035 Ry
     estimated scf accuracy    <       0.00007368 Ry

     total magnetization       =     0.65 Bohr mag/cell
     absolute magnetization    =     0.70 Bohr mag/cell

     iteration # 17     ecut=    60.00 Ry     beta= 0.10
     CG style diagonalization

---- Real-time Memory Report at c_bands before calling an iterative solver
             0 MiB given to the printing process from OS
             0 MiB allocation reported by mallinfo(arena+hblkhd)
        102800 MiB available memory on the node where the printing process lives
------------------
     c_bands:  2 eigenvalues not converged
     c_bands:  1 eigenvalues not converged
     ethr =  3.97E-09,  avg # of iterations =  3.2

     negative rho (up, down):  1.021E+01 1.020E+01


     ----------------------------------------------------------------

     Non-local correlation energy =             18.770553679199477

     ----------------------------------------------------------------


     total cpu time spent up to now is    44837.3 secs

     total energy              =  -24449.01087128 Ry
     estimated scf accuracy    <       0.00003594 Ry

     total magnetization       =     0.56 Bohr mag/cell
     absolute magnetization    =     0.61 Bohr mag/cell

     iteration # 18     ecut=    60.00 Ry     beta= 0.10
     CG style diagonalization

---- Real-time Memory Report at c_bands before calling an iterative solver
             0 MiB given to the printing process from OS
             0 MiB allocation reported by mallinfo(arena+hblkhd)
        102815 MiB available memory on the node where the printing process lives
------------------
     c_bands:  5 eigenvalues not converged
     c_bands:  4 eigenvalues not converged
     ethr =  1.94E-09,  avg # of iterations =  3.5

     negative rho (up, down):  1.021E+01 1.020E+01


     ----------------------------------------------------------------

     Non-local correlation energy =             18.770560552317313

     ----------------------------------------------------------------


     total cpu time spent up to now is    47228.7 secs

     total energy              =  -24449.01088661 Ry
     estimated scf accuracy    <       0.00002070 Ry

     total magnetization       =     0.47 Bohr mag/cell
     absolute magnetization    =     0.51 Bohr mag/cell

     iteration # 19     ecut=    60.00 Ry     beta= 0.10
     CG style diagonalization

---- Real-time Memory Report at c_bands before calling an iterative solver
             0 MiB given to the printing process from OS
             0 MiB allocation reported by mallinfo(arena+hblkhd)
        102823 MiB available memory on the node where the printing process lives
------------------
     c_bands:  1 eigenvalues not converged
     ethr =  1.11E-09,  avg # of iterations =  3.0

     negative rho (up, down):  1.021E+01 1.020E+01


     ----------------------------------------------------------------

     Non-local correlation energy =             18.770575049112153

     ----------------------------------------------------------------


     total cpu time spent up to now is    49169.9 secs

     total energy              =  -24449.01090688 Ry
     estimated scf accuracy    <       0.00001760 Ry

     total magnetization       =     0.46 Bohr mag/cell
     absolute magnetization    =     0.50 Bohr mag/cell

     iteration # 20     ecut=    60.00 Ry     beta= 0.10
     CG style diagonalization

---- Real-time Memory Report at c_bands before calling an iterative solver
             0 MiB given to the printing process from OS
             0 MiB allocation reported by mallinfo(arena+hblkhd)
        102832 MiB available memory on the node where the printing process lives
------------------
     ethr =  9.48E-10,  avg # of iterations =  3.0

     negative rho (up, down):  1.021E+01 1.020E+01


     ----------------------------------------------------------------

     Non-local correlation energy =             18.770617970346130

     ----------------------------------------------------------------


     total cpu time spent up to now is    51086.9 secs

     total energy              =  -24449.01092619 Ry
     estimated scf accuracy    <       0.00001371 Ry

     total magnetization       =     0.43 Bohr mag/cell
     absolute magnetization    =     0.47 Bohr mag/cell

     iteration # 21     ecut=    60.00 Ry     beta= 0.10
     CG style diagonalization

---- Real-time Memory Report at c_bands before calling an iterative solver
             0 MiB given to the printing process from OS
             0 MiB allocation reported by mallinfo(arena+hblkhd)
        102845 MiB available memory on the node where the printing process lives
------------------
     ethr =  7.38E-10,  avg # of iterations =  3.0

     negative rho (up, down):  1.021E+01 1.020E+01


     ----------------------------------------------------------------

     Non-local correlation energy =             18.770645849904398

     ----------------------------------------------------------------


     total cpu time spent up to now is    53017.3 secs

     total energy              =  -24449.01093963 Ry
     estimated scf accuracy    <       0.00001015 Ry

     total magnetization       =     0.37 Bohr mag/cell
     absolute magnetization    =     0.40 Bohr mag/cell

     iteration # 22     ecut=    60.00 Ry     beta= 0.10
     CG style diagonalization

---- Real-time Memory Report at c_bands before calling an iterative solver
             0 MiB given to the printing process from OS
             0 MiB allocation reported by mallinfo(arena+hblkhd)
        102857 MiB available memory on the node where the printing process lives
------------------
     c_bands:  2 eigenvalues not converged
     ethr =  5.47E-10,  avg # of iterations =  3.1

     negative rho (up, down):  1.020E+01 1.020E+01


     ----------------------------------------------------------------

     Non-local correlation energy =             18.770678261107477

     ----------------------------------------------------------------


     total cpu time spent up to now is    54998.3 secs

     total energy              =  -24449.01095089 Ry
     estimated scf accuracy    <       0.00000682 Ry

     total magnetization       =     0.33 Bohr mag/cell
     absolute magnetization    =     0.35 Bohr mag/cell

     iteration # 23     ecut=    60.00 Ry     beta= 0.10
     CG style diagonalization

---- Real-time Memory Report at c_bands before calling an iterative solver
             0 MiB given to the printing process from OS
             0 MiB allocation reported by mallinfo(arena+hblkhd)
        102883 MiB available memory on the node where the printing process lives
------------------
     c_bands:  3 eigenvalues not converged
     c_bands:  2 eigenvalues not converged
     ethr =  3.67E-10,  avg # of iterations =  3.1

     negative rho (up, down):  1.020E+01 1.020E+01


     ----------------------------------------------------------------

     Non-local correlation energy =             18.770690664795200

     ----------------------------------------------------------------


     total cpu time spent up to now is    57048.4 secs

     total energy              =  -24449.01095616 Ry
     estimated scf accuracy    <       0.00000450 Ry

     total magnetization       =     0.27 Bohr mag/cell
     absolute magnetization    =     0.29 Bohr mag/cell

     iteration # 24     ecut=    60.00 Ry     beta= 0.10
     CG style diagonalization

---- Real-time Memory Report at c_bands before calling an iterative solver
             0 MiB given to the printing process from OS
             0 MiB allocation reported by mallinfo(arena+hblkhd)
        102869 MiB available memory on the node where the printing process lives
------------------
     c_bands:  1 eigenvalues not converged
     c_bands:  1 eigenvalues not converged
     ethr =  2.42E-10,  avg # of iterations =  3.0

     negative rho (up, down):  1.020E+01 1.020E+01


     ----------------------------------------------------------------

     Non-local correlation energy =             18.770709076753725

     ----------------------------------------------------------------


     total cpu time spent up to now is    58988.6 secs

     total energy              =  -24449.01095769 Ry
     estimated scf accuracy    <       0.00000354 Ry

     total magnetization       =     0.24 Bohr mag/cell
     absolute magnetization    =     0.26 Bohr mag/cell

     iteration # 25     ecut=    60.00 Ry     beta= 0.10
     CG style diagonalization

---- Real-time Memory Report at c_bands before calling an iterative solver
             0 MiB given to the printing process from OS
             0 MiB allocation reported by mallinfo(arena+hblkhd)
        102892 MiB available memory on the node where the printing process lives
------------------
     ethr =  1.91E-10,  avg # of iterations =  3.0

     negative rho (up, down):  1.020E+01 1.020E+01


     ----------------------------------------------------------------

     Non-local correlation energy =             18.770737991998768

     ----------------------------------------------------------------


     total cpu time spent up to now is    60899.9 secs

     total energy              =  -24449.01095805 Ry
     estimated scf accuracy    <       0.00000301 Ry

     total magnetization       =     0.22 Bohr mag/cell
     absolute magnetization    =     0.23 Bohr mag/cell

     iteration # 26     ecut=    60.00 Ry     beta= 0.10
     CG style diagonalization

---- Real-time Memory Report at c_bands before calling an iterative solver
             0 MiB given to the printing process from OS
             0 MiB allocation reported by mallinfo(arena+hblkhd)
        102897 MiB available memory on the node where the printing process lives
------------------
     ethr =  1.62E-10,  avg # of iterations =  3.0

     negative rho (up, down):  1.020E+01 1.020E+01


     ----------------------------------------------------------------

     Non-local correlation energy =             18.770781794142323

     ----------------------------------------------------------------


     total cpu time spent up to now is    62818.6 secs

     total energy              =  -24449.01095885 Ry
     estimated scf accuracy    <       0.00000214 Ry

     total magnetization       =     0.19 Bohr mag/cell
     absolute magnetization    =     0.20 Bohr mag/cell

     iteration # 27     ecut=    60.00 Ry     beta= 0.10
     CG style diagonalization

---- Real-time Memory Report at c_bands before calling an iterative solver
             0 MiB given to the printing process from OS
             0 MiB allocation reported by mallinfo(arena+hblkhd)
        102882 MiB available memory on the node where the printing process lives
------------------
     ethr =  1.15E-10,  avg # of iterations =  3.3

     negative rho (up, down):  1.020E+01 1.020E+01


     ----------------------------------------------------------------

     Non-local correlation energy =             18.770784217696491

     ----------------------------------------------------------------

 
     Magnetic moment per site  (integrated on atomic sphere of radius R)
     atom   1 (R=0.028)  charge=  9.0898  magn=  0.0007
     atom   2 (R=0.028)  charge=  9.0876  magn=  0.0007
     atom   3 (R=0.028)  charge=  9.0709  magn=  0.0004
     atom   4 (R=0.028)  charge=  9.0713  magn=  0.0005
     atom   5 (R=0.028)  charge=  9.0897  magn=  0.0007
     atom   6 (R=0.028)  charge=  9.0709  magn=  0.0004
     atom   7 (R=0.028)  charge=  9.0876  magn=  0.0008
     atom   8 (R=0.028)  charge=  9.0598  magn=  0.0001
     atom   9 (R=0.028)  charge=  9.0799  magn=  0.0002
     atom  10 (R=0.028)  charge=  9.0732  magn=  0.0006
     atom  11 (R=0.028)  charge=  9.0732  magn=  0.0007
     atom  12 (R=0.028)  charge=  9.0794  magn=  0.0003
     atom  13 (R=0.028)  charge=  9.0882  magn=  0.0007
     atom  14 (R=0.028)  charge=  9.0710  magn=  0.0005
     atom  15 (R=0.028)  charge=  9.0716  magn=  0.0006
     atom  16 (R=0.028)  charge=  9.0885  magn=  0.0008
     atom  17 (R=0.028)  charge=  9.0713  magn=  0.0005
     atom  18 (R=0.028)  charge=  9.0793  magn=  0.0004
     atom  19 (R=0.028)  charge=  9.0881  magn=  0.0008
     atom  20 (R=0.028)  charge=  9.0716  magn=  0.0007
     atom  21 (R=0.028)  charge=  9.0709  magn=  0.0005
     atom  22 (R=0.028)  charge=  9.0782  magn=  0.0003
     atom  23 (R=0.028)  charge=  9.0712  magn=  0.0004
     atom  24 (R=0.028)  charge=  9.0712  magn=  0.0004
     atom  25 (R=0.028)  charge=  9.0885  magn=  0.0008
     atom  26 (R=0.028)  charge=  9.0707  magn=  0.0004
     atom  27 (R=0.028)  charge=  9.0882  magn=  0.0009
     atom  28 (R=0.028)  charge=  9.0882  magn=  0.0009
     atom  29 (R=0.028)  charge=  9.0794  magn=  0.0003
     atom  30 (R=0.028)  charge=  9.0713  magn=  0.0006
     atom  31 (R=0.028)  charge=  9.0805  magn=  0.0003
     atom  32 (R=0.028)  charge=  9.0716  magn=  0.0007
     atom  33 (R=0.028)  charge=  9.0787  magn=  0.0004
     atom  34 (R=0.028)  charge=  9.0712  magn=  0.0005
     atom  35 (R=0.028)  charge=  9.0884  magn=  0.0009
     atom  36 (R=0.028)  charge=  9.0715  magn=  0.0008
     atom  37 (R=0.028)  charge=  9.0883  magn=  0.0010
     atom  38 (R=0.028)  charge=  9.0794  magn=  0.0004
     atom  39 (R=0.028)  charge=  9.0712  magn=  0.0007
     atom  40 (R=0.028)  charge=  9.0715  magn=  0.0008
     atom  41 (R=0.028)  charge=  9.0805  magn=  0.0003
     atom  42 (R=0.028)  charge=  9.0678  magn=  0.0006
     atom  43 (R=0.028)  charge=  9.0648  magn=  0.0002
     atom  44 (R=0.028)  charge=  9.0652  magn=  0.0003
     atom  45 (R=0.028)  charge=  9.0652  magn=  0.0003
     atom  46 (R=0.028)  charge=  9.0682  magn=  0.0008
     atom  47 (R=0.028)  charge=  9.0718  magn=  0.0007
     atom  48 (R=0.028)  charge=  9.0712  magn=  0.0009
     atom  49 (R=0.028)  charge=  9.0651  magn=  0.0003
     atom  50 (R=0.028)  charge=  9.0787  magn=  0.0004
     atom  51 (R=0.028)  charge=  9.0803  magn=  0.0003
     atom  52 (R=0.028)  charge=  9.0787  magn=  0.0005
     atom  53 (R=0.028)  charge=  9.0712  magn=  0.0006
     atom  54 (R=0.028)  charge=  9.0714  magn=  0.0009
     atom  55 (R=0.028)  charge=  9.0884  magn=  0.0011
     atom  56 (R=0.028)  charge=  9.0682  magn=  0.0009
     atom  57 (R=0.028)  charge=  9.0717  magn=  0.0008
     atom  58 (R=0.028)  charge=  9.0651  magn=  0.0003
     atom  59 (R=0.028)  charge=  9.0712  magn=  0.0011
     atom  60 (R=0.028)  charge=  9.0679  magn=  0.0007
     atom  61 (R=0.028)  charge=  9.0713  magn=  0.0004
     atom  62 (R=0.028)  charge=  9.0714  magn=  0.0007
     atom  63 (R=0.028)  charge=  9.0714  magn=  0.0007
     atom  64 (R=0.028)  charge=  9.0786  magn=  0.0004
     atom  65 (R=0.028)  charge=  9.0883  magn=  0.0008
     atom  66 (R=0.028)  charge=  9.0882  magn=  0.0012
     atom  67 (R=0.028)  charge=  9.0787  magn=  0.0005
     atom  68 (R=0.028)  charge=  9.0803  magn=  0.0003
     atom  69 (R=0.028)  charge=  9.0786  magn=  0.0004
     atom  70 (R=0.028)  charge=  9.0883  magn=  0.0008
     atom  71 (R=0.028)  charge=  9.0710  magn=  0.0006
     atom  72 (R=0.028)  charge=  9.0791  magn=  0.0005
     atom  73 (R=0.028)  charge=  9.0714  magn=  0.0009
     atom  74 (R=0.028)  charge=  9.0882  magn=  0.0011
     atom  75 (R=0.028)  charge=  9.0711  magn=  0.0006
     atom  76 (R=0.028)  charge=  9.0787  magn=  0.0005
     atom  77 (R=0.028)  charge=  9.0710  magn=  0.0005
     atom  78 (R=0.028)  charge=  9.0711  magn=  0.0005
     atom  79 (R=0.028)  charge=  9.0791  magn=  0.0005
     atom  80 (R=0.028)  charge=  9.0714  magn=  0.0009
     atom  81 (R=0.028)  charge=  9.0710  magn=  0.0006
     atom  82 (R=0.028)  charge=  9.0882  magn=  0.0011
     atom  83 (R=0.028)  charge=  9.0679  magn=  0.0009
     atom  84 (R=0.028)  charge=  9.0653  magn=  0.0004
     atom  85 (R=0.028)  charge=  9.0716  magn=  0.0010
     atom  86 (R=0.028)  charge=  9.0716  magn=  0.0010
     atom  87 (R=0.028)  charge=  9.0681  magn=  0.0009
     atom  88 (R=0.028)  charge=  9.0717  magn=  0.0008
     atom  89 (R=0.028)  charge=  9.0708  magn=  0.0005
     atom  90 (R=0.028)  charge=  9.0716  magn=  0.0009
     atom  91 (R=0.028)  charge=  9.0786  magn=  0.0005
     atom  92 (R=0.028)  charge=  9.0880  magn=  0.0010
     atom  93 (R=0.028)  charge=  9.0787  magn=  0.0005
     atom  94 (R=0.028)  charge=  9.0709  magn=  0.0006
     atom  95 (R=0.028)  charge=  9.0711  magn=  0.0006
     atom  96 (R=0.028)  charge=  9.0681  magn=  0.0010
     atom  97 (R=0.028)  charge=  9.0716  magn=  0.0009
     atom  98 (R=0.028)  charge=  9.0716  magn=  0.0010
     atom  99 (R=0.028)  charge=  9.0708  magn=  0.0006
     atom 100 (R=0.028)  charge=  9.0679  magn=  0.0009
     atom 101 (R=0.028)  charge=  9.0708  magn=  0.0005
     atom 102 (R=0.028)  charge=  9.0709  magn=  0.0005
     atom 103 (R=0.028)  charge=  9.0709  magn=  0.0006
     atom 104 (R=0.028)  charge=  9.0787  magn=  0.0004
     atom 105 (R=0.028)  charge=  9.0786  magn=  0.0006
     atom 106 (R=0.028)  charge=  9.0880  magn=  0.0011
     atom 107 (R=0.028)  charge=  9.0786  magn=  0.0005
     atom 108 (R=0.028)  charge=  9.0886  magn=  0.0012
     atom 109 (R=0.028)  charge=  9.0886  magn=  0.0012
     atom 110 (R=0.028)  charge=  9.0786  magn=  0.0006
     atom 111 (R=0.028)  charge=  9.0802  magn=  0.0004
     atom 112 (R=0.028)  charge=  9.0787  magn=  0.0005
     atom 113 (R=0.028)  charge=  9.0881  magn=  0.0010
     atom 114 (R=0.028)  charge=  9.0787  magn=  0.0006
     atom 115 (R=0.028)  charge=  9.0881  magn=  0.0011
     atom 116 (R=0.028)  charge=  9.0785  magn=  0.0005
     atom 117 (R=0.028)  charge=  0.8180  magn= -0.0000

     total cpu time spent up to now is    65006.2 secs

     End of self-consistent calculation

 ------ SPIN UP ------------


          k = 0.0000 0.0000 0.0000 (413569 PWs)   bands (ev):

   -55.5440 -55.4892 -55.4876 -55.4871 -55.4716 -55.4713 -55.4706 -55.4623
   -55.4615 -55.4598 -55.4582 -55.4579 -55.4115 -55.4112 -55.4101 -55.4096
   -55.4084 -55.4078 -55.3852 -55.3839 -55.3751 -55.3727 -55.3667 -55.3666
   -55.3659 -55.3645 -55.3639 -55.3638 -55.3556 -55.3276 -55.3275 -55.3242
   -55.2981 -55.2965 -55.2964 -55.2960 -55.2957 -55.2954 -55.2940 -55.2929
   -55.2918 -55.2853 -55.2785 -55.2731 -55.2713 -55.2569 -55.2562 -55.2537
   -55.2511 -55.2505 -55.2503 -55.2497 -55.2492 -55.2469 -55.2406 -55.2388
   -55.2381 -55.2359 -55.2186 -55.2178 -55.2175 -55.2150 -55.2147 -55.2141
   -55.2106 -55.2099 -55.2032 -55.2030 -55.2019 -55.1998 -55.1993 -55.1722
   -55.1715 -55.1709 -55.1680 -55.1662 -55.1649 -55.1645 -55.1642 -55.1632
   -55.1616 -55.1569 -55.1348 -55.1345 -55.1330 -55.1251 -55.1248 -55.1247
   -55.1171 -55.1164 -55.1112 -55.1096 -55.0968 -55.0960 -55.0956 -55.0952
   -55.0943 -55.0920 -55.0915 -55.0909 -55.0902 -55.0891 -55.0881 -55.0867
   -55.0860 -55.0847 -55.0843 -55.0718 -55.0705 -55.0692 -55.0637 -55.0634
   -55.0609 -55.0582 -55.0328 -54.9193 -54.8920 -54.8903 -54.8898 -54.8890
   -54.8877 -54.8869 -54.8864 -54.8841 -54.8368 -54.8368 -54.8354 -54.8334
   -54.8330 -54.8329 -54.8316 -54.8311 -54.8301 -54.8284 -54.8280 -54.8267
   -54.8239 -54.8235 -54.8123 -54.7981 -54.7767 -54.7713 -54.7704 -54.7668
   -54.7634 -54.7625 -54.7567 -54.7347 -54.7314 -54.7286 -54.7251 -54.7237
   -54.7206 -54.7200 -54.7178 -54.7172 -54.7170 -54.7160 -54.7143 -54.7134
   -54.7119 -54.7111 -54.7100 -54.7084 -54.7052 -54.7009 -54.6979 -54.6961
   -54.6954 -54.6945 -54.6934 -54.6925 -54.6912 -54.6900 -54.6882 -54.6867
   -54.6858 -54.6857 -54.6841 -54.6805 -54.6738 -54.6583 -54.6570 -54.6567
   -54.6532 -54.6514 -54.6483 -54.6475 -54.6471 -54.6466 -54.6454 -54.6404
   -54.6401 -54.6364 -54.6356 -54.6346 -54.6324 -54.6315 -54.6299 -54.6266
   -54.5374 -54.5325 -54.5220 -54.5219 -54.5207 -54.5190 -54.5177 -54.5103
   -54.5103 -54.5064 -54.5039 -54.5028 -54.4821 -54.4755 -54.4740 -54.4716
   -54.4708 -54.4698 -54.4666 -54.4659 -54.4648 -54.4647 -54.4629 -54.4623
   -54.4617 -54.4605 -54.4593 -54.4593 -54.4566 -54.4547 -54.4523 -54.4492
   -54.4475 -54.4466 -54.4454 -54.4444 -54.4424 -54.4421 -54.4419 -54.4406
   -54.4401 -54.4301 -54.4260 -54.4258 -54.4232 -54.4229 -54.4208 -54.4195
   -54.4180 -54.4172 -54.4163 -54.4157 -54.4130 -54.4069 -54.4057 -54.4048
   -54.4048 -54.4038 -54.4037 -54.4026 -54.3654 -54.3653 -54.3649 -54.3646
   -54.3623 -54.3605 -54.3556 -54.3555 -54.3552 -54.3547 -54.3540 -54.3536
   -54.3524 -54.3508 -54.3484 -54.3473 -54.3426 -54.3363 -54.3356 -54.3354
   -54.3342 -54.3330 -54.3327 -54.3323 -54.3241 -54.3230 -54.3228 -54.3222
   -54.3209 -54.3209 -54.3205 -54.3204 -54.3199 -54.3193 -54.3191 -54.3189
   -54.3186 -54.3181 -54.3162 -54.3049 -54.3048 -54.3045 -54.3037 -54.3029
   -54.3021 -54.3011 -54.3008 -54.3004 -54.2953 -54.2951 -54.2944 -54.2941
   -54.2940 -54.2939 -54.2936 -54.2928 -54.2917 -54.2911 -54.2909 -54.2904
   -54.2900 -54.2894 -54.2891 -54.2890 -54.2436 -54.2420 -54.2420 -54.2413
   -54.2402 -54.2402 -54.2398 -54.2394 -54.2386 -54.2384 -54.2381 -54.2378
   -54.2078 -54.2076 -54.2072 -54.2070 -54.2069 -54.2069 -54.2068 -54.2059
   -54.2054 -54.2053 -54.2051 -54.2048 -11.5016 -10.6702 -10.6569 -10.6557
    -9.8003  -9.7886  -9.7856  -9.7747  -9.7564  -9.5545  -9.1816  -9.1773
    -9.1771  -9.0873  -8.9618  -8.9538  -8.9516  -8.8021  -8.7657  -8.7487
    -8.7440  -8.7098  -8.7086  -8.6613  -8.6125  -8.5850  -8.5844  -8.5811
    -8.5771  -8.5769  -8.5669  -8.5556  -8.5527  -8.5489  -8.3815  -8.3802
    -8.3799  -8.3464  -8.3321  -8.3193  -8.3185  -8.3182  -8.2952  -8.2891
    -8.2869  -8.2520  -8.2474  -8.2462  -8.1820  -8.1142  -8.1128  -8.0546
    -8.0536  -8.0175  -7.9784  -7.9643  -7.9344  -7.9077  -7.9075  -7.9070
    -7.9069  -7.9065  -7.8658  -7.8577  -7.8333  -7.8303  -7.8254  -7.8218
    -7.8212  -7.7482  -7.7304  -7.7019  -7.6944  -7.6935  -7.6906  -7.6569
    -7.5778  -7.5735  -7.5723  -7.5709  -7.5684  -7.5681  -7.5676  -7.5669
    -7.5657  -7.5627  -7.5599  -7.5581  -7.5415  -7.5409  -7.5392  -7.5141
    -7.4655  -7.4565  -7.4536  -7.4523  -7.4510  -7.4509  -7.4420  -7.4394
    -7.4358  -7.4309  -7.4293  -7.4143  -7.3994  -7.3834  -7.3828  -7.3352
    -7.3105  -7.3081  -7.2486  -7.2247  -7.2246  -7.1939  -7.1817  -7.1817
    -7.1540  -7.0988  -7.0945  -7.0819  -7.0623  -7.0618  -7.0051  -6.9938
    -6.9898  -6.9867  -6.9485  -6.9472  -6.9261  -6.9110  -6.9106  -6.9086
    -6.8982  -6.8946  -6.8291  -6.7982  -6.7937  -6.7742  -6.7535  -6.6678
    -6.6432  -6.6361  -6.5891  -6.5890  -6.5845  -6.5823  -6.5782  -6.5748
    -6.5610  -6.5608  -6.5581  -6.5268  -6.5233  -6.5217  -6.5188  -6.5147
    -6.5058  -6.4691  -6.4662  -6.4593  -6.4513  -6.4509  -6.4493  -6.4474
    -6.4472  -6.4454  -6.4454  -6.4443  -6.4443  -6.4425  -6.4123  -6.3407
    -6.3348  -6.3338  -6.3303  -6.3282  -6.3212  -6.3130  -6.2924  -6.2912
    -6.2814  -6.2309  -6.2300  -6.2296  -6.2248  -6.2246  -6.2237  -6.2098
    -6.1976  -6.1948  -6.1894  -6.1780  -6.1773  -6.1528  -6.1233  -6.1027
    -6.0994  -6.0977  -6.0733  -6.0702  -6.0619  -6.0492  -6.0491  -6.0272
    -6.0256  -6.0209  -6.0063  -5.9993  -5.9979  -5.9904  -5.9890  -5.9870
    -5.9774  -5.9770  -5.9577  -5.9092  -5.9020  -5.8929  -5.8925  -5.8911
    -5.8598  -5.8586  -5.8565  -5.8165  -5.8117  -5.7919  -5.7237  -5.7227
    -5.7021  -5.6951  -5.6823  -5.6748  -5.6736  -5.6542  -5.6507  -5.6430
    -5.6415  -5.6387  -5.6295  -5.6272  -5.6261  -5.6239  -5.6203  -5.6179
    -5.6055  -5.6052  -5.5939  -5.5259  -5.5102  -5.5101  -5.5016  -5.4994
    -5.4985  -5.4803  -5.4723  -5.4686  -5.4685  -5.4518  -5.4485  -5.4470
    -5.4388  -5.4218  -5.4037  -5.4016  -5.3991  -5.3982  -5.3825  -5.3632
    -5.3570  -5.3133  -5.3112  -5.2990  -5.2823  -5.2756  -5.2302  -5.2241
    -5.2234  -5.2115  -5.1838  -5.1637  -5.1584  -5.1533  -5.1471  -5.1243
    -5.1163  -5.1133  -5.1130  -5.1109  -5.1096  -5.1056  -5.0973  -5.0962
    -5.0939  -5.0621  -5.0577  -5.0555  -5.0411  -5.0354  -5.0320  -5.0211
    -4.9950  -4.9807  -4.9744  -4.9681  -4.9669  -4.9643  -4.9640  -4.9600
    -4.9549  -4.8778  -4.8718  -4.8672  -4.8430  -4.8408  -4.8392  -4.8289
    -4.8231  -4.8151  -4.8060  -4.7994  -4.7937  -4.7927  -4.7614  -4.7480
    -4.7405  -4.7402  -4.7325  -4.7315  -4.7290  -4.6340  -4.6337  -4.6214
    -4.6199  -4.5592  -4.5589  -4.5458  -4.5425  -4.5407  -4.5327  -4.5224
    -4.5215  -4.5078  -4.5023  -4.4944  -4.4880  -4.4868  -4.4808  -4.4605
    -4.4596  -4.4515  -4.4496  -4.4412  -4.4143  -4.3851  -4.3679  -4.3589
    -4.3429  -4.3406  -4.3377  -4.3327  -4.3247  -4.3153  -4.3134  -4.3075
    -4.3059  -4.2998  -4.2791  -4.2743  -4.2675  -4.2604  -4.2597  -4.2594
    -4.2569  -4.2551  -4.2438  -4.2357  -4.2341  -4.2239  -4.1551  -4.1485
    -4.1307  -4.1264  -4.1258  -4.1215  -4.1024  -4.0971  -4.0927  -4.0885
    -4.0873  -4.0829  -4.0750  -4.0289  -4.0232  -4.0148  -3.9990  -3.9977
    -3.9792  -3.9737  -3.9535  -3.9523  -3.9153  -3.9055  -3.9038  -3.8972
    -3.8963  -3.8946  -3.8776  -3.8738  -3.8728  -3.8175  -3.7959  -3.7954
    -3.7931  -3.7922  -3.7918  -3.7869  -3.7797  -3.7769  -3.7750  -3.7741
    -3.7685  -3.7554  -3.7379  -3.7379  -3.7331  -3.7264  -3.7261  -3.7233
    -3.7057  -3.7024  -3.6969  -3.6843  -3.6779  -3.6772  -3.6679  -3.6666
    -3.6618  -3.6120  -3.6088  -3.6075  -3.6029  -3.5999  -3.5977  -3.5855
    -3.5827  -3.5619  -3.5589  -3.5550  -3.5533  -3.5327  -3.5304  -3.5239
    -3.5233  -3.5141  -3.5038  -3.4880  -3.4803  -3.4657  -3.4607  -3.4277
    -3.4272  -3.4036  -3.3973  -3.3923  -3.3885  -3.3736  -3.3527  -3.3467
    -3.3445  -3.3202  -3.3159  -3.3110  -3.2893  -3.2892  -3.2850  -3.2776
    -3.2341  -3.2334  -3.2215  -3.2205  -3.2143  -3.2008  -3.2007  -3.2002
    -3.1883  -3.1868  -3.1786  -3.1674  -3.1670  -3.1632  -3.1578  -3.1571
    -3.1178  -3.1111  -3.1077  -3.1011  -3.0955  -3.0946  -3.0931  -3.0892
    -3.0838  -3.0809  -3.0739  -3.0721  -3.0709  -3.0538  -3.0508  -3.0452
    -3.0044  -2.9948  -2.9941  -2.9894  -2.9720  -2.9703  -2.9649  -2.9637
    -2.9624  -2.9095  -2.9064  -2.9026  -2.8741  -2.8628  -2.8608  -2.8572
    -2.8493  -2.8435  -2.8407  -2.8343  -2.8318  -2.8294  -2.7900  -2.7775
    -2.7751  -2.7747  -2.7518  -2.7403  -2.7393  -2.6860  -2.6839  -2.6792
    -2.6782  -2.6777  -2.6774  -2.6769  -2.6763  -2.6762  -2.6726  -2.6407
    -2.6233  -2.6186  -2.6175  -2.6005  -2.5978  -2.5966  -2.5946  -2.5942
    -2.5927  -2.5915  -2.5899  -2.5886  -2.5878  -2.5844  -2.5841  -2.5818
    -2.5759  -2.5741  -2.5544  -2.5517  -2.5489  -2.5487  -2.5256  -2.5230
    -2.5208  -2.5205  -2.5173  -2.5168  -2.4843  -2.4721  -2.4658  -2.4329
    -2.4298  -2.4291  -2.3944  -2.3928  -2.3920  -2.3776  -2.3713  -2.3706
    -2.3441  -2.3428  -2.3415  -2.2961  -2.2896  -2.2886  -2.2868  -2.2744
    -2.2723  -2.2644  -2.2545  -2.2526  -2.2515  -2.2513  -2.2422  -2.2072
    -2.2053  -2.2016  -2.1656  -2.1469  -2.1307  -2.1128  -2.1085  -2.1074
    -2.0809  -2.0700  -2.0619  -2.0566  -2.0489  -2.0474  -2.0451  -2.0438
    -2.0437  -2.0423  -2.0408  -2.0403  -1.8427  -1.8323  -1.5293  -1.2801
    -1.2786  -1.2773  -1.2755  -1.2746  -1.2095  -1.1667  -1.1491  -1.1478
    -1.1441  -1.1412  -1.1364  -1.1247  -1.1020  -1.0993  -1.0979  -1.0882
    -1.0391  -1.0321  -0.9429  -0.9200  -0.9156  -0.5469  -0.4278  -0.4278
    -0.2726  -0.2072   0.0027   0.0089   0.0488   0.0702   0.0773   0.0789
     0.0970   0.0980   0.1539   0.1670   0.1697   0.2110   0.2709   0.2712
     0.2733   0.2784   0.2805   0.2811   0.2849   0.2968   0.2979   0.3497
     0.3961   0.4143   0.4872   1.0246   1.2283   1.2303   1.2990   1.3652
     1.3679   1.3690   1.4785   1.4926   1.4970   1.4986   1.5022   1.5028
     1.5075   1.5272   1.5394   1.5400   1.5618   1.5753   1.5772   1.5809
     1.6104   1.6130   1.6752   1.6772   1.6777   1.6931   1.6996   1.8848
     2.1133   2.2361   2.2364   2.2937   2.3165   2.3300   2.3853   2.4956
     2.4980   2.5194   2.5214   2.5238   2.5782   2.6729   2.6973   2.7051
     2.7155   2.7267   2.7595   2.7629   2.7650   2.7780   2.7811   2.7831
     2.7925   2.8027   2.8058   2.8278   2.8375   2.8509   2.8584   2.8681
     2.8739   2.8835   2.8939   2.8952   2.8973   2.9166   2.9676   2.9688
     3.0020   3.0922   3.1100   3.1102   3.1448   3.1650   3.1702   3.1714
     3.1799   3.2300   3.2349   3.2356   3.2408   3.3471   3.3495   3.3630
     3.3749   3.3813   3.4126

     occupation numbers 
     1.0000   1.0000   1.0000   1.0000   1.0000   1.0000   1.0000   1.0000
     1.0000   1.0000   1.0000   1.0000   1.0000   1.0000   1.0000   1.0000
     1.0000   1.0000   1.0000   1.0000   1.0000   1.0000   1.0000   1.0000
     1.0000   1.0000   1.0000   1.0000   1.0000   1.0000   1.0000   1.0000
     1.0000   1.0000   1.0000   1.0000   1.0000   1.0000   1.0000   1.0000
     1.0000   1.0000   1.0000   1.0000   1.0000   1.0000   1.0000   1.0000
     1.0000   1.0000   1.0000   1.0000   1.0000   1.0000   1.0000   1.0000
     1.0000   1.0000   1.0000   1.0000   1.0000   1.0000   1.0000   1.0000
     1.0000   1.0000   1.0000   1.0000   1.0000   1.0000   1.0000   1.0000
     1.0000   1.0000   1.0000   1.0000   1.0000   1.0000   1.0000   1.0000
     1.0000   1.0000   1.0000   1.0000   1.0000   1.0000   1.0000   1.0000
     1.0000   1.0000   1.0000   1.0000   1.0000   1.0000   1.0000   1.0000
     1.0000   1.0000   1.0000   1.0000   1.0000   1.0000   1.0000   1.0000
     1.0000   1.0000   1.0000   1.0000   1.0000   1.0000   1.0000   1.0000
     1.0000   1.0000   1.0000   1.0000   1.0000   1.0000   1.0000   1.0000
     1.0000   1.0000   1.0000   1.0000   1.0000   1.0000   1.0000   1.0000
     1.0000   1.0000   1.0000   1.0000   1.0000   1.0000   1.0000   1.0000
     1.0000   1.0000   1.0000   1.0000   1.0000   1.0000   1.0000   1.0000
     1.0000   1.0000   1.0000   1.0000   1.0000   1.0000   1.0000   1.0000
     1.0000   1.0000   1.0000   1.0000   1.0000   1.0000   1.0000   1.0000
     1.0000   1.0000   1.0000   1.0000   1.0000   1.0000   1.0000   1.0000
     1.0000   1.0000   1.0000   1.0000   1.0000   1.0000   1.0000   1.0000
     1.0000   1.0000   1.0000   1.0000   1.0000   1.0000   1.0000   1.0000
     1.0000   1.0000   1.0000   1.0000   1.0000   1.0000   1.0000   1.0000
     1.0000   1.0000   1.0000   1.0000   1.0000   1.0000   1.0000   1.0000
     1.0000   1.0000   1.0000   1.0000   1.0000   1.0000   1.0000   1.0000
     1.0000   1.0000   1.0000   1.0000   1.0000   1.0000   1.0000   1.0000
     1.0000   1.0000   1.0000   1.0000   1.0000   1.0000   1.0000   1.0000
     1.0000   1.0000   1.0000   1.0000   1.0000   1.0000   1.0000   1.0000
     1.0000   1.0000   1.0000   1.0000   1.0000   1.0000   1.0000   1.0000
     1.0000   1.0000   1.0000   1.0000   1.0000   1.0000   1.0000   1.0000
     1.0000   1.0000   1.0000   1.0000   1.0000   1.0000   1.0000   1.0000
     1.0000   1.0000   1.0000   1.0000   1.0000   1.0000   1.0000   1.0000
     1.0000   1.0000   1.0000   1.0000   1.0000   1.0000   1.0000   1.0000
     1.0000   1.0000   1.0000   1.0000   1.0000   1.0000   1.0000   1.0000
     1.0000   1.0000   1.0000   1.0000   1.0000   1.0000   1.0000   1.0000
     1.0000   1.0000   1.0000   1.0000   1.0000   1.0000   1.0000   1.0000
     1.0000   1.0000   1.0000   1.0000   1.0000   1.0000   1.0000   1.0000
     1.0000   1.0000   1.0000   1.0000   1.0000   1.0000   1.0000   1.0000
     1.0000   1.0000   1.0000   1.0000   1.0000   1.0000   1.0000   1.0000
     1.0000   1.0000   1.0000   1.0000   1.0000   1.0000   1.0000   1.0000
     1.0000   1.0000   1.0000   1.0000   1.0000   1.0000   1.0000   1.0000
     1.0000   1.0000   1.0000   1.0000   1.0000   1.0000   1.0000   1.0000
     1.0000   1.0000   1.0000   1.0000   1.0000   1.0000   1.0000   1.0000
     1.0000   1.0000   1.0000   1.0000   1.0000   1.0000   1.0000   1.0000
     1.0000   1.0000   1.0000   1.0000   1.0000   1.0000   1.0000   1.0000
     1.0000   1.0000   1.0000   1.0000   1.0000   1.0000   1.0000   1.0000
     1.0000   1.0000   1.0000   1.0000   1.0000   1.0000   1.0000   1.0000
     1.0000   1.0000   1.0000   1.0000   1.0000   1.0000   1.0000   1.0000
     1.0000   1.0000   1.0000   1.0000   1.0000   1.0000   1.0000   1.0000
     1.0000   1.0000   1.0000   1.0000   1.0000   1.0000   1.0000   1.0000
     1.0000   1.0000   1.0000   1.0000   1.0000   1.0000   1.0000   1.0000
     1.0000   1.0000   1.0000   1.0000   1.0000   1.0000   1.0000   1.0000
     1.0000   1.0000   1.0000   1.0000   1.0000   1.0000   1.0000   1.0000
     1.0000   1.0000   1.0000   1.0000   1.0000   1.0000   1.0000   1.0000
     1.0000   1.0000   1.0000   1.0000   1.0000   1.0000   1.0000   1.0000
     1.0000   1.0000   1.0000   1.0000   1.0000   1.0000   1.0000   1.0000
     1.0000   1.0000   1.0000   1.0000   1.0000   1.0000   1.0000   1.0000
     1.0000   1.0000   1.0000   1.0000   1.0000   1.0000   1.0000   1.0000
     1.0000   1.0000   1.0000   1.0000   1.0000   1.0000   1.0000   1.0000
     1.0000   1.0000   1.0000   1.0000   1.0000   1.0000   1.0000   1.0000
     1.0000   1.0000   1.0000   1.0000   1.0000   1.0000   1.0000   1.0000
     1.0000   1.0000   1.0000   1.0000   1.0000   1.0000   1.0000   1.0000
     1.0000   1.0000   1.0000   1.0000   1.0000   1.0000   1.0000   1.0000
     1.0000   1.0000   1.0000   1.0000   1.0000   1.0000   1.0000   1.0000
     1.0000   1.0000   1.0000   1.0000   1.0000   1.0000   1.0000   1.0000
     1.0000   1.0000   1.0000   1.0000   1.0000   1.0000   1.0000   1.0000
     1.0000   1.0000   1.0000   1.0000   1.0000   1.0000   1.0000   1.0000
     1.0000   1.0000   1.0000   1.0000   1.0000   1.0000   1.0000   1.0000
     1.0000   1.0000   1.0000   1.0000   1.0000   1.0000   1.0000   1.0000
     1.0000   1.0000   1.0000   1.0000   1.0000   1.0000   1.0000   1.0000
     1.0000   1.0000   1.0000   1.0000   1.0000   1.0000   1.0000   1.0000
     1.0000   1.0000   1.0000   1.0000   1.0000   1.0000   1.0000   1.0000
     1.0000   1.0000   1.0000   1.0000   1.0000   1.0000   1.0000   1.0000
     1.0000   1.0000   1.0000   1.0000   1.0000   1.0000   1.0000   1.0000
     1.0000   1.0000   1.0000   1.0000   1.0000   1.0000   1.0000   1.0000
     1.0000   1.0000   1.0000   1.0000   1.0000   1.0000   1.0000   1.0000
     1.0000   1.0000   1.0000   1.0000   1.0000   1.0000   1.0000   1.0000
     1.0000   1.0000   1.0000   1.0000   1.0000   1.0000   1.0000   1.0000
     1.0000   1.0000   1.0000   1.0000   1.0000   1.0000   1.0000   1.0000
     1.0000   1.0000   1.0000   1.0000   1.0000   1.0000   1.0000   1.0000
     1.0000   1.0000   1.0000   1.0000   1.0000   1.0000   1.0000   1.0000
     1.0000   1.0000   1.0000   1.0000   1.0000   1.0000   1.0000   1.0000
     1.0000   1.0000   1.0000   1.0000   1.0000   1.0000   1.0000   1.0000
     1.0000   1.0000   1.0000   1.0000   1.0000   1.0000   1.0000   1.0000
     1.0000   1.0000   1.0000   1.0000   1.0000   1.0000   1.0000   1.0000
     1.0000   1.0000   1.0000   1.0000   1.0000   1.0000   1.0000   1.0000
     1.0000   1.0000   1.0000   1.0000   1.0000   1.0000   1.0000   1.0000
     1.0000   1.0000   1.0000   1.0000   1.0000   1.0000   1.0000   1.0000
     1.0000   1.0000   1.0000   1.0000   1.0000   1.0000   1.0000   1.0000
     1.0000   1.0000   1.0000   1.0000   1.0000   1.0000   1.0000   1.0000
     1.0000   1.0000   1.0000   1.0000   1.0000   1.0000   1.0000   1.0000
     1.0000   1.0000   1.0000   1.0000   1.0000   1.0000   1.0000   1.0000
     1.0000   1.0000   1.0000   1.0000   1.0000   1.0000   1.0000   1.0000
     1.0000   1.0000   1.0000   1.0000   1.0000   1.0000   1.0000   1.0000
     1.0000   1.0000   1.0000   1.0000   1.0000   1.0000   1.0000   1.0000
     1.0000   1.0000   1.0000   1.0000   1.0000   1.0000   1.0000   1.0000
     1.0000   1.0000   1.0000   1.0000   1.0000   1.0000   1.0000   1.0000
     1.0000   1.0000   1.0000   1.0000   1.0000   1.0000   1.0000   1.0000
     1.0000   1.0000   1.0000   1.0000   1.0000   1.0000   1.0000   1.0000
     1.0000   1.0000   1.0000   1.0000   1.0000   1.0000   1.0000   1.0000
     1.0000   1.0000   1.0000   1.0000   1.0000   1.0000   1.0000   1.0000
     1.0000   1.0000   1.0000   1.0000   1.0000   1.0000   1.0000   1.0000
     1.0000   1.0000   1.0000   1.0000   1.0000   1.0000   1.0000   1.0000
     1.0000   1.0000   1.0000   1.0000   1.0000   1.0000   1.0000   1.0000
     1.0000   1.0000   1.0000   1.0000   1.0000   1.0000   1.0000   1.0000
     1.0000   1.0000   1.0000   1.0000   1.0000   1.0000   1.0000   1.0000
     1.0000   1.0000   1.0000   1.0000   1.0000   1.0000   1.0000   1.0000
     1.0000   1.0000   1.0000   1.0000   1.0000   1.0000   1.0000   1.0000
     1.0000   1.0000   1.0000   1.0000   1.0000   1.0000   0.9999   0.9999
     0.9999   0.9998   0.9996   0.9994   0.9994   0.9964   0.9962   0.9956
     0.9955   0.9954   0.9953   0.9953   0.9952   0.9952   0.9946   0.9867
[...]
     atom   16 type  1   force =     0.00002694   -0.00000472   -0.00004670
     atom   17 type  1   force =     0.00003503   -0.00006019    0.00002863
     atom   18 type  1   force =     0.00006049   -0.00004723    0.00000780
     atom   19 type  1   force =     0.00004535   -0.00004784   -0.00001555
     atom   20 type  1   force =     0.00000061   -0.00003538   -0.00001979
     atom   21 type  1   force =     0.00003026   -0.00005070    0.00001888
     atom   22 type  1   force =     0.00005319   -0.00003960   -0.00003956
     atom   23 type  1   force =     0.00003771   -0.00003928   -0.00002019
     atom   24 type  1   force =     0.00003773   -0.00002022   -0.00003926
     atom   25 type  1   force =     0.00002689   -0.00004671   -0.00000468
     atom   26 type  1   force =     0.00002968    0.00005537    0.00005543
     atom   27 type  1   force =    -0.00000262    0.00006891    0.00004230
     atom   28 type  1   force =    -0.00000262    0.00004226    0.00006890
     atom   29 type  1   force =     0.00002479    0.00007511    0.00001257
     atom   30 type  1   force =    -0.00001467    0.00002193   -0.00001200
     atom   31 type  1   force =    -0.00000433    0.00005979   -0.00000041
     atom   32 type  1   force =    -0.00001036    0.00000912   -0.00000364
     atom   33 type  1   force =     0.00000786    0.00006109   -0.00002766
     atom   34 type  1   force =     0.00003785    0.00002789   -0.00004613
     atom   35 type  1   force =     0.00000165    0.00006025   -0.00003894
     atom   36 type  1   force =     0.00000133    0.00000905   -0.00000498
     atom   37 type  1   force =     0.00000754    0.00003492   -0.00006373
     atom   38 type  1   force =     0.00002483    0.00001252    0.00007508
     atom   39 type  1   force =    -0.00001468   -0.00001206    0.00002194
     atom   40 type  1   force =    -0.00001035   -0.00000369    0.00000915
     atom   41 type  1   force =    -0.00000434   -0.00000049    0.00005976
     atom   42 type  1   force =    -0.00003099    0.00000115    0.00000124
     atom   43 type  1   force =     0.00000589   -0.00001757   -0.00001746
     atom   44 type  1   force =    -0.00001198    0.00000512   -0.00000742
     atom   45 type  1   force =    -0.00001197   -0.00000751    0.00000518
     atom   46 type  1   force =     0.00000892   -0.00000672   -0.00002585
     atom   47 type  1   force =     0.00002235   -0.00001246   -0.00002463
     atom   48 type  1   force =     0.00001478   -0.00000165   -0.00001804
     atom   49 type  1   force =     0.00000315   -0.00000651   -0.00001548
     atom   50 type  1   force =     0.00002635    0.00000605   -0.00005842
     atom   51 type  1   force =     0.00001403   -0.00000539   -0.00005713
     atom   52 type  1   force =     0.00000785   -0.00002769    0.00006105
     atom   53 type  1   force =     0.00003781   -0.00004614    0.00002790
     atom   54 type  1   force =     0.00000133   -0.00000503    0.00000905
     atom   55 type  1   force =     0.00000167   -0.00003892    0.00006019
     atom   56 type  1   force =     0.00000890   -0.00002588   -0.00000669
     atom   57 type  1   force =     0.00002230   -0.00002467   -0.00001238
     atom   58 type  1   force =     0.00000313   -0.00001557   -0.00000642
     atom   59 type  1   force =     0.00001477   -0.00001806   -0.00000162
     atom   60 type  1   force =     0.00002570   -0.00002201   -0.00002195
     atom   61 type  1   force =     0.00003892   -0.00002853   -0.00002851
     atom   62 type  1   force =     0.00002413   -0.00000494   -0.00001613
     atom   63 type  1   force =     0.00002412   -0.00001618   -0.00000485
     atom   64 type  1   force =     0.00002225   -0.00001589   -0.00004640
     atom   65 type  1   force =     0.00001489   -0.00003384   -0.00005856
     atom   66 type  1   force =     0.00000755   -0.00006369    0.00003489
     atom   67 type  1   force =     0.00002630   -0.00005841    0.00000608
     atom   68 type  1   force =     0.00001400   -0.00005713   -0.00000536
     atom   69 type  1   force =     0.00002219   -0.00004645   -0.00001583
     atom   70 type  1   force =     0.00001486   -0.00005863   -0.00003379
     atom   71 type  1   force =    -0.00003572    0.00003573    0.00003578
     atom   72 type  1   force =    -0.00002061    0.00005936    0.00001267
     atom   73 type  1   force =    -0.00000547    0.00001111    0.00000004
     atom   74 type  1   force =    -0.00003464    0.00006110    0.00000033
     atom   75 type  1   force =    -0.00003484    0.00003187    0.00003004
     atom   76 type  1   force =    -0.00001868    0.00006332   -0.00001663
     atom   77 type  1   force =    -0.00002980    0.00004074   -0.00003834
     atom   78 type  1   force =    -0.00003389    0.00003784   -0.00003209
     atom   79 type  1   force =    -0.00002062    0.00001262    0.00005933
     atom   80 type  1   force =    -0.00000548   -0.00000003    0.00001114
     atom   81 type  1   force =    -0.00003483    0.00002997    0.00003189
     atom   82 type  1   force =    -0.00003462    0.00000028    0.00006106
     atom   83 type  1   force =    -0.00001347    0.00000046    0.00000052
     atom   84 type  1   force =    -0.00001202   -0.00000078   -0.00000067
     atom   85 type  1   force =    -0.00000847   -0.00000031    0.00000552
     atom   86 type  1   force =    -0.00000847    0.00000545   -0.00000024
     atom   87 type  1   force =    -0.00000076    0.00000173    0.00000323
     atom   88 type  1   force =     0.00001360   -0.00000265   -0.00001036
     atom   89 type  1   force =    -0.00003714    0.00003880   -0.00003541
     atom   90 type  1   force =    -0.00000789    0.00000180    0.00000813
     atom   91 type  1   force =    -0.00000847    0.00001751   -0.00006846
     atom   92 type  1   force =    -0.00003263   -0.00000198   -0.00007132
     atom   93 type  1   force =    -0.00001866   -0.00001664    0.00006327
     atom   94 type  1   force =    -0.00002975   -0.00003833    0.00004067
     atom   95 type  1   force =    -0.00003385   -0.00003209    0.00003784
     atom   96 type  1   force =    -0.00000075    0.00000315    0.00000176
     atom   97 type  1   force =     0.00001361   -0.00001039   -0.00000257
     atom   98 type  1   force =    -0.00000787    0.00000805    0.00000187
     atom   99 type  1   force =    -0.00003709   -0.00003544    0.00003879
     atom  100 type  1   force =     0.00000977    0.00000019    0.00000029
     atom  101 type  1   force =    -0.00002221   -0.00003938   -0.00003931
     atom  102 type  1   force =    -0.00003442   -0.00003731   -0.00003770
     atom  103 type  1   force =    -0.00003442   -0.00003774   -0.00003723
     atom  104 type  1   force =    -0.00000452   -0.00001889   -0.00006772
     atom  105 type  1   force =    -0.00000848   -0.00006845    0.00001751
     atom  106 type  1   force =    -0.00003262   -0.00007133   -0.00000189
     atom  107 type  1   force =    -0.00000450   -0.00006776   -0.00001884
     atom  108 type  1   force =    -0.00005666    0.00003397   -0.00000011
     atom  109 type  1   force =    -0.00005662   -0.00000015    0.00003396
     atom  110 type  1   force =    -0.00005425    0.00001600    0.00001607
     atom  111 type  1   force =    -0.00005344    0.00000131    0.00000139
     atom  112 type  1   force =    -0.00006003    0.00001736   -0.00001339
     atom  113 type  1   force =    -0.00006740   -0.00000118   -0.00003538
     atom  114 type  1   force =    -0.00005999   -0.00001343    0.00001738
     atom  115 type  1   force =    -0.00006736   -0.00003541   -0.00000113
     atom  116 type  1   force =    -0.00006382   -0.00001590   -0.00001582
     atom  117 type  2   force =     0.00000364   -0.00000017   -0.00000017

     Total force =     0.004108     Total SCF correction =     0.000630
     SCF correction compared to forces is large: reduce conv_thr to get better values
     Energy error            =      5.4E-05 Ry
     Gradient error          =      9.3E-04 Ry/Bohr

     bfgs converged in  24 scf cycles and  23 bfgs steps
     (criteria: energy <  1.0E-04 Ry, force <  1.0E-03 Ry/Bohr)

     End of BFGS Geometry Optimization

     Final energy             =  -24449.0264293443 Ry

     File ./out/calc.bfgs deleted, as requested
Begin final coordinates

ATOMIC_POSITIONS (angstrom)
Pt              -5.7814248137       -3.8741927058        0.0070606665
Pt              -3.8294662034       -5.7948972881       -0.0045844774
Pt              -4.0636538408       -4.0595435989       -2.1314096503
Pt              -4.0456417228       -4.0567544705        2.1246976640
Pt              -5.7814248137        0.0070606665       -3.8741927058
Pt              -4.0636538408       -2.1314096503       -4.0595435989
Pt              -3.8294662034       -0.0045844774       -5.7948972881
Pt              -5.8683445250       -1.9754719312       -1.9754719312
Pt              -6.0399902659        0.0092357430        0.0092357430
Pt              -3.9013896158       -1.9724918456       -0.0102391270
Pt              -3.9013896158       -0.0102391270       -1.9724918456
Pt              -5.8352593658       -1.9667117975        1.9582901132
Pt              -5.7931908502       -0.0089144900        3.8378824035
Pt              -4.0503456140       -2.1256598854        4.0510373545
Pt              -3.8919032227       -0.0127826426        1.9497817157
Pt              -3.8429330470       -0.0029922226        5.7897946900
Pt              -4.0456417228        2.1246976640       -4.0567544705
Pt              -5.8352593658        1.9582901132       -1.9667117975
Pt              -5.7931908502        3.8378824035       -0.0089144900
Pt              -3.8919032227        1.9497817157       -0.0127826426
Pt              -4.0503456140        4.0510373545       -2.1256598854
Pt              -5.8505147870        1.9333344944        1.9333344944
Pt              -4.0555233472        2.1056989731        4.0333007519
Pt              -4.0555233472        4.0333007519        2.1056989731
Pt              -3.8429330470        5.7897946900       -0.0029922226
Pt              -2.1276798117       -4.0419209704       -4.0419209704
Pt              -0.0023172101       -5.7879881246       -3.8414185732
Pt              -0.0023172101       -3.8414185732       -5.7879881246
Pt              -1.9440010676       -5.8428616986       -1.9464845078
Pt              -1.9707417273       -3.8751784445       -0.0048645402
Pt               0.0045342976       -5.9138601389       -0.0012091126
Pt              -0.0007032575       -3.8756481178       -1.9699524814
Pt              -1.9477576964       -5.8362639446        1.9520601369
Pt              -2.1191068541       -4.0505161368        4.0489239667
Pt               0.0040933112       -5.7901587249        3.8404275917
Pt              -0.0006152916       -3.8757637188        1.9685026246
Pt              -0.0007545241       -3.8391362749        5.7901805951
Pt              -1.9440010676       -1.9464845078       -5.8428616986
Pt              -1.9707417273       -0.0048645402       -3.8751784445
Pt              -0.0007032575       -1.9699524814       -3.8756481178
Pt               0.0045342976       -0.0012091126       -5.9138601389
Pt              -2.0445122641       -2.0339874515       -2.0339874515
Pt              -1.9726466791       -0.0126450576       -0.0126450576
Pt              -0.0000566046       -1.9631706555       -0.0021633970
Pt              -0.0000566046       -0.0021633970       -1.9631706555
Pt              -2.0357525307       -2.0329802787        2.0263969880
Pt              -1.9716516810       -0.0041872318        3.8765566297
Pt              -0.0044895890       -1.9669281276        3.8778133863
Pt              -0.0065660763       -0.0010280750        1.9586295774
Pt              -1.9529593050       -1.9519944460        5.8390574922
Pt              -0.0000522485        0.0034452405        5.9142928243
Pt              -1.9477576964        1.9520601369       -5.8362639446
Pt              -2.1191068541        4.0489239667       -4.0505161368
Pt              -0.0006152916        1.9685026246       -3.8757637188
Pt               0.0040933112        3.8404275917       -5.7901587249
Pt              -2.0357525307        2.0263969880       -2.0329802787
Pt              -1.9716516810        3.8765566297       -0.0041872318
Pt              -0.0065660763        1.9586295774       -0.0010280750
Pt              -0.0044895890        3.8778133863       -1.9669281276
Pt              -2.0437930826        2.0176224776        2.0176224776
Pt              -2.1290772889        4.0392088703        4.0392088703
Pt              -0.0055755324        1.9668944465        3.8706310672
Pt              -0.0055755324        3.8706310672        1.9668944465
Pt              -1.9557024592        1.9490359523        5.8297485646
Pt              -0.0033222540        3.8368904421        5.7826655188
Pt              -0.0007545241        5.7901805951       -3.8391362749
Pt              -1.9529593050        5.8390574922       -1.9519944460
Pt              -0.0000522485        5.9142928243        0.0034452405
Pt              -1.9557024592        5.8297485646        1.9490359523
Pt              -0.0033222540        5.7826655188        3.8368904421
Pt               2.1211029642       -4.0496650353       -4.0496650353
Pt               1.9512296809       -5.8355650121       -1.9518045362
Pt               1.9709253078       -3.8746977378       -0.0000254474
Pt               3.8393893843       -5.7889642199       -0.0004162422
Pt               4.0502557530       -4.0518108714       -2.1242654758
Pt               1.9519634327       -5.8324581175        1.9509042546
Pt               2.1224777467       -4.0471251544        4.0513577144
Pt               4.0517867522       -4.0493399427        2.1239869184
Pt               1.9512296809       -1.9518045362       -5.8355650121
Pt               1.9709253078       -0.0000254474       -3.8746977378
Pt               4.0502557530       -2.1242654758       -4.0518108714
Pt               3.8393893843       -0.0004162422       -5.7889642199
Pt               2.0356649016       -2.0299998211       -2.0299998211
Pt               1.9622311578        0.0025427731        0.0025427731
Pt               3.8792474664       -1.9675352115        0.0020466667
Pt               3.8792474664        0.0020466667       -1.9675352115
Pt               2.0313745220       -2.0302253552        2.0335242132
Pt               1.9689989718        0.0018955145        3.8742365755
Pt               4.0514481592       -2.1225732678        4.0521225681
Pt               3.8791448321        0.0028806346        1.9722372547
Pt               1.9486089305       -1.9477321300        5.8345473713
Pt               3.8416868862       -0.0003159311        5.7883026478
Pt               1.9519634327        1.9509042546       -5.8324581175
Pt               2.1224777467        4.0513577144       -4.0471251544
Pt               4.0517867522        2.1239869184       -4.0493399427
Pt               2.0313745220        2.0335242132       -2.0302253552
Pt               1.9689989718        3.8742365755        0.0018955145
Pt               3.8791448321        1.9722372547        0.0028806346
Pt               4.0514481592        4.0521225681       -2.1225732678
Pt               2.0324730833        2.0323312627        2.0323312627
Pt               2.1239351856        4.0473276872        4.0473276872
Pt               4.0546537737        2.1245513622        4.0523067549
Pt               4.0546537737        4.0523067549        2.1245513622
Pt               1.9495447105        1.9487186016        5.8329644580
Pt               1.9486089305        5.8345473713       -1.9477321300
Pt               3.8416868862        5.7883026478       -0.0003159311
Pt               1.9495447105        5.8329644580        1.9487186016
Pt               5.7898255328       -3.8417415187       -0.0010821993
Pt               5.7898255328       -0.0010821993       -3.8417415187
Pt               5.8338144055       -1.9507923444       -1.9507923444
Pt               5.9175754574        0.0018046432        0.0018046432
Pt               5.8353171110       -1.9500510592        1.9514574305
Pt               5.7909615036        0.0004282212        3.8440142011
Pt               5.8353171110        1.9514574305       -1.9500510592
Pt               5.7909615036        3.8440142011        0.0004282212
Pt               5.8405577005        1.9505883117        1.9505883117
H               -7.0286883771       -1.0256740794       -1.0256740794
End final coordinates



     Writing all to output data dir ./out/calc.save/ :
     XML data file, charge density, pseudopotentials, collected wavefunctions
 
     init_run     :     97.24s CPU    112.02s WALL (       1 calls)
     electrons    : 957845.17s CPU 969785.08s WALL (      24 calls)
     update_pot   :    167.32s CPU    186.97s WALL (      22 calls)
     forces       :   1088.35s CPU   1135.71s WALL (      24 calls)

     Called by init_run:
     wfcinit      :     74.47s CPU     77.65s WALL (       1 calls)
     wfcinit:atom :      0.28s CPU      0.45s WALL (       2 calls)
     wfcinit:wfcr :     72.19s CPU     74.94s WALL (       2 calls)
     potinit      :     16.50s CPU     28.47s WALL (       2 calls)
     hinit0       :      5.36s CPU      5.46s WALL (       1 calls)

     Called by electrons:
     c_bands      : 941875.24s CPU 952753.97s WALL (     347 calls)
     sum_band     :  11207.90s CPU  11646.79s WALL (     347 calls)
     v_of_rho     :   2510.10s CPU   2810.12s WALL (     355 calls)
     v_h          :     37.54s CPU     40.83s WALL (     355 calls)
     v_xc         :   2638.66s CPU   2956.62s WALL (     379 calls)
     newd         :   1145.44s CPU   1285.68s WALL (     355 calls)
     mix_rho      :   1269.15s CPU   1380.41s WALL (     347 calls)

     Called by c_bands:
     init_us_2    :    445.46s CPU    449.88s WALL (    1438 calls)
     rcgdiagg     : 922683.42s CPU 932871.20s WALL (     745 calls)
     wfcrot       :  18893.38s CPU  19572.01s WALL (     667 calls)

     Called by sum_band:
     sum_band:wei :      1.12s CPU      1.12s WALL (     347 calls)
     sum_band:loo :   9604.68s CPU   9910.14s WALL (     347 calls)
     sum_band:buf :     77.44s CPU     78.31s WALL (     694 calls)
     sum_band:ini :    214.79s CPU    216.73s WALL (     694 calls)
     sum_band:cal :   2332.92s CPU   2346.50s WALL (     694 calls)
     sum_band:bec :      6.92s CPU      6.96s WALL (     694 calls)
     addusdens    :   1547.26s CPU   1672.15s WALL (     347 calls)
                                        0.00s GPU  (     347 calls)
     addusd:skk   :     61.48s CPU    108.44s WALL (     694 calls)
                                        0.00s GPU  (     694 calls)

     Called by *cgdiagg:
     h_psi        : 385294.92s CPU 391899.94s WALL ( 2307557 calls)
     s_psi        : 309165.44s CPU 311474.37s WALL ( 4614447 calls)

     Called by h_psi:
     h_psi:calbec : 162110.31s CPU 163407.39s WALL ( 2307557 calls)
     vloc_psi     :  64366.52s CPU  68511.23s WALL ( 2307557 calls)
     add_vuspsi   : 158586.79s CPU 159756.01s WALL ( 2307557 calls)
     hs_1psi      : 522646.88s CPU 529781.35s WALL ( 2306890 calls)
     s_1psi       : 315961.83s CPU 318383.79s WALL ( 2306890 calls)

     General routines
     calbec       : 324697.12s CPU 327274.78s WALL ( 4615333 calls)
     fft          :   1485.55s CPU   1702.98s WALL (   25688 calls)
     ffts         :    615.59s CPU    719.01s WALL (   38818 calls)
     fftw         :  37163.14s CPU  41230.32s WALL ( 5745960 calls)
     interpolate  :     62.61s CPU     72.23s WALL (     710 calls)
 
     Parallel routines
 
     PWSCF        :  11d 2h30m CPU  11d 5h53m WALL

 
   This run was terminated on:  16:54:25   9May2025            

=------------------------------------------------------------------------------=
   JOB DONE.
=------------------------------------------------------------------------------=
