
     Program PWSCF v.7.3.1 starts on 18Jan2025 at 15:50: 9 

     This program is part of the open-source Quantum ESPRESSO suite
     for quantum simulation of materials; please cite
         "P. Giannozzi et al., J. Phys.:Condens. Matter 21 395502 (2009);
         "P. Giannozzi et al., J. Phys.:Condens. Matter 29 465901 (2017);
         "P. Giannozzi et al., J. Chem. Phys. 152 154105 (2020);
          URL http://www.quantum-espresso.org", 
     in publications or presentations arising from this work. More details at
     http://www.quantum-espresso.org/quote

     Parallel version (MPI), running on    36 processors

     MPI processes distributed on     1 nodes
     183656 MiB available memory on the printing compute node when the environment starts
 
     Reading input from espresso.pwi
Warning: card   &CELL ignored
Warning: card      CELL_DOFREE = 'IBRAV' ignored
Warning: card / ignored

     Current dimensions of program PWSCF are:
     Max number of different atomic species (ntypx) = 10
     Max number of k-points (npk) =  40000
     Max angular momentum in pseudopotentials (lmaxx) =  4

     IMPORTANT: XC functional enforced from input :
     Exchange-correlation= RVV10
                           (   1   4  13   4  26   0   0)
     Any further DFT definition will be discarded
     Please, verify this is what you really want


     gamma-point specific algorithms are used
     Message from routine setup:
     using ibrav=0 with symmetry is DISCOURAGED, use correct ibrav instead
 
     R & G space division:  proc/nbgrp/npool/nimage =      36
     Subspace diagonalization in iterative solution of the eigenvalue problem:
     one sub-group per band group will be used
     scalapack distributed-memory algorithm (size of sub-group:  5*  5 procs)

 
     Parallelization info
     --------------------
     sticks:   dense  smooth     PW     G-vecs:    dense   smooth      PW
     Min        1227     612    151               194140    68620    8576
     Max        1230     614    154               194152    68634    8590
     Sum       44213   22097   5513              6989249  2470567  308947
 
     Using Slab Decomposition
 

     Title: 
     calc                                                                       


     bravais-lattice index     =            0
     lattice parameter (alat)  =      34.0151  a.u.
     unit-cell volume          =   39356.2868 (a.u.)^3
     number of atoms/cell      =           56
     number of atomic types    =            2
     number of electrons       =       881.00
     number of Kohn-Sham states=          529
     kinetic-energy cutoff     =      60.0000  Ry
     charge density cutoff     =     480.0000  Ry
     scf convergence threshold =      1.0E-06
     mixing beta               =       0.2000
     number of iterations used =            8  plain     mixing
     energy convergence thresh.=      1.0E-04
     force convergence thresh. =      1.0E-03
     Exchange-correlation= RVV10
                           (   1   4  13   4  26   0   0)
     nstep                     =        10000


     celldm(1)=  34.015070  celldm(2)=   0.000000  celldm(3)=   0.000000
     celldm(4)=   0.000000  celldm(5)=   0.000000  celldm(6)=   0.000000

     crystal axes: (cart. coord. in units of alat)
               a(1) = (   1.000000   0.000000   0.000000 )  
               a(2) = (   0.000000   1.000000   0.000000 )  
               a(3) = (   0.000000   0.000000   1.000000 )  

     reciprocal axes: (cart. coord. in units 2 pi/alat)
               b(1) = (  1.000000  0.000000  0.000000 )  
               b(2) = (  0.000000  1.000000  0.000000 )  
               b(3) = (  0.000000  0.000000  1.000000 )  


     PseudoPot. # 1 for Pt read from file:
     /home/james/work/espresso/SSSP_1.3.0_PBE_efficiency/pt_pbe_v1.4.uspp.F.UPF
     MD5 check sum: f09d6de1a584b5a045c4fc126da2d0c4
     Pseudo is Ultrasoft + core correction, Zval = 16.0
     Generated by new atomic code, or converted to UPF format
     Using radial grid of  985 points,  6 beta functions with: 
                l(1) =   0
                l(2) =   0
                l(3) =   1
                l(4) =   1
                l(5) =   2
                l(6) =   2
     Q(r) pseudized with  8 coefficients,  rinner =    1.300   1.300   1.300
                                                       1.300   1.300

     PseudoPot. # 2 for H  read from file:
     /home/james/work/espresso/SSSP_1.3.0_PBE_efficiency/H.pbe-rrkjus_psl.1.0.0.UPF
     MD5 check sum: f52b6d4d1c606e5624b1dc7b2218f220
     Pseudo is Ultrasoft, Zval =  1.0
     Generated using "atomic" code by A. Dal Corso  v.5.1
     Using radial grid of  929 points,  2 beta functions with: 
                l(1) =   0
                l(2) =   0
     Q(r) pseudized with 0 coefficients 


     atomic species   valence    mass     pseudopotential
     Pt               16.00   195.08400     Pt( 1.00)
     H                 1.00     1.00800     H ( 1.00)

     Starting magnetic structure 
     atomic species   magnetization
     Pt              0.010
     H               0.020

      2 Sym. Ops. (no inversion) found


                                    s                        frac. trans.

      isym =  1     identity                                     

 cryst.   s( 1) = (     1          0          0      )
                  (     0          1          0      )
                  (     0          0          1      )

 cart.    s( 1) = (  1.0000000  0.0000000  0.0000000 )
                  (  0.0000000  1.0000000  0.0000000 )
                  (  0.0000000  0.0000000  1.0000000 )


      isym =  2     inv. 180 deg rotation - cart. axis [1,-1,0]  

 cryst.   s( 2) = (     0          1          0      )
                  (     1          0          0      )
                  (     0          0          1      )

 cart.    s( 2) = (  0.0000000  1.0000000  0.0000000 )
                  (  1.0000000  0.0000000  0.0000000 )
                  (  0.0000000  0.0000000  1.0000000 )


   Cartesian axes

     site n.     atom                  positions (alat units)
         1        Pt     tau(   1) = (  -0.2177778  -0.1088889  -0.1088889  )
         2        Pt     tau(   2) = (  -0.1088889  -0.2177778  -0.1088889  )
         3        Pt     tau(   3) = (  -0.1088889  -0.1088889  -0.2177778  )
         4        Pt     tau(   4) = (  -0.2177778  -0.2177778   0.0000000  )
         5        Pt     tau(   5) = (  -0.2177778  -0.1088889   0.1088889  )
         6        Pt     tau(   6) = (  -0.1088889  -0.2177778   0.1088889  )
         7        Pt     tau(   7) = (  -0.1088889  -0.1088889   0.0000000  )
         8        Pt     tau(   8) = (  -0.1088889  -0.1088889   0.2177778  )
         9        Pt     tau(   9) = (  -0.2177778   0.0000000  -0.2177778  )
        10        Pt     tau(  10) = (  -0.2177778   0.1088889  -0.1088889  )
        11        Pt     tau(  11) = (  -0.1088889   0.0000000  -0.1088889  )
        12        Pt     tau(  12) = (  -0.1088889   0.1088889  -0.2177778  )
        13        Pt     tau(  13) = (  -0.2177778   0.0000000   0.0000000  )
        14        Pt     tau(  14) = (  -0.2177778   0.1088889   0.1088889  )
        15        Pt     tau(  15) = (  -0.1088889   0.0000000   0.1088889  )
        16        Pt     tau(  16) = (  -0.1088889   0.1088889   0.0000000  )
        17        Pt     tau(  17) = (  -0.2177778   0.0000000   0.2177778  )
        18        Pt     tau(  18) = (  -0.1088889   0.1088889   0.2177778  )
        19        Pt     tau(  19) = (  -0.1088889   0.2177778  -0.1088889  )
        20        Pt     tau(  20) = (  -0.2177778   0.2177778   0.0000000  )
        21        Pt     tau(  21) = (  -0.1088889   0.2177778   0.1088889  )
        22        Pt     tau(  22) = (   0.0000000  -0.2177778  -0.2177778  )
        23        Pt     tau(  23) = (   0.0000000  -0.1088889  -0.1088889  )
        24        Pt     tau(  24) = (   0.1088889  -0.2177778  -0.1088889  )
        25        Pt     tau(  25) = (   0.1088889  -0.1088889  -0.2177778  )
        26        Pt     tau(  26) = (   0.0000000  -0.2177778   0.0000000  )
        27        Pt     tau(  27) = (   0.0000000  -0.1088889   0.1088889  )
        28        Pt     tau(  28) = (   0.1088889  -0.2177778   0.1088889  )
        29        Pt     tau(  29) = (   0.1088889  -0.1088889   0.0000000  )
        30        Pt     tau(  30) = (   0.0000000  -0.2177778   0.2177778  )
        31        Pt     tau(  31) = (   0.1088889  -0.1088889   0.2177778  )
        32        Pt     tau(  32) = (   0.0000000   0.0000000  -0.2177778  )
        33        Pt     tau(  33) = (   0.0000000   0.1088889  -0.1088889  )
        34        Pt     tau(  34) = (   0.1088889   0.0000000  -0.1088889  )
        35        Pt     tau(  35) = (   0.1088889   0.1088889  -0.2177778  )
        36        Pt     tau(  36) = (   0.0000000   0.0000000   0.0000000  )
        37        Pt     tau(  37) = (   0.0000000   0.1088889   0.1088889  )
        38        Pt     tau(  38) = (   0.1088889   0.0000000   0.1088889  )
        39        Pt     tau(  39) = (   0.1088889   0.1088889   0.0000000  )
        40        Pt     tau(  40) = (   0.0000000   0.0000000   0.2177778  )
        41        Pt     tau(  41) = (   0.1088889   0.1088889   0.2177778  )
        42        Pt     tau(  42) = (   0.0000000   0.2177778  -0.2177778  )
        43        Pt     tau(  43) = (   0.1088889   0.2177778  -0.1088889  )
        44        Pt     tau(  44) = (   0.0000000   0.2177778   0.0000000  )
        45        Pt     tau(  45) = (   0.1088889   0.2177778   0.1088889  )
        46        Pt     tau(  46) = (   0.0000000   0.2177778   0.2177778  )
        47        Pt     tau(  47) = (   0.2177778  -0.1088889  -0.1088889  )
        48        Pt     tau(  48) = (   0.2177778  -0.2177778   0.0000000  )
        49        Pt     tau(  49) = (   0.2177778  -0.1088889   0.1088889  )
        50        Pt     tau(  50) = (   0.2177778   0.0000000  -0.2177778  )
        51        Pt     tau(  51) = (   0.2177778   0.1088889  -0.1088889  )
        52        Pt     tau(  52) = (   0.2177778   0.0000000   0.0000000  )
        53        Pt     tau(  53) = (   0.2177778   0.1088889   0.1088889  )
        54        Pt     tau(  54) = (   0.2177778   0.0000000   0.2177778  )
        55        Pt     tau(  55) = (   0.2177778   0.2177778   0.0000000  )
        56        H      tau(  56) = (  -0.2231790  -0.2231790  -0.1142901  )

   Crystallographic axes

     site n.     atom                  positions (cryst. coord.)
         1        Pt     tau(   1) = ( -0.2177778 -0.1088889 -0.1088889  )
         2        Pt     tau(   2) = ( -0.1088889 -0.2177778 -0.1088889  )
         3        Pt     tau(   3) = ( -0.1088889 -0.1088889 -0.2177778  )
         4        Pt     tau(   4) = ( -0.2177778 -0.2177778  0.0000000  )
         5        Pt     tau(   5) = ( -0.2177778 -0.1088889  0.1088889  )
         6        Pt     tau(   6) = ( -0.1088889 -0.2177778  0.1088889  )
         7        Pt     tau(   7) = ( -0.1088889 -0.1088889  0.0000000  )
         8        Pt     tau(   8) = ( -0.1088889 -0.1088889  0.2177778  )
         9        Pt     tau(   9) = ( -0.2177778  0.0000000 -0.2177778  )
        10        Pt     tau(  10) = ( -0.2177778  0.1088889 -0.1088889  )
        11        Pt     tau(  11) = ( -0.1088889  0.0000000 -0.1088889  )
        12        Pt     tau(  12) = ( -0.1088889  0.1088889 -0.2177778  )
        13        Pt     tau(  13) = ( -0.2177778  0.0000000  0.0000000  )
        14        Pt     tau(  14) = ( -0.2177778  0.1088889  0.1088889  )
        15        Pt     tau(  15) = ( -0.1088889  0.0000000  0.1088889  )
        16        Pt     tau(  16) = ( -0.1088889  0.1088889  0.0000000  )
        17        Pt     tau(  17) = ( -0.2177778  0.0000000  0.2177778  )
        18        Pt     tau(  18) = ( -0.1088889  0.1088889  0.2177778  )
        19        Pt     tau(  19) = ( -0.1088889  0.2177778 -0.1088889  )
        20        Pt     tau(  20) = ( -0.2177778  0.2177778  0.0000000  )
        21        Pt     tau(  21) = ( -0.1088889  0.2177778  0.1088889  )
        22        Pt     tau(  22) = (  0.0000000 -0.2177778 -0.2177778  )
        23        Pt     tau(  23) = (  0.0000000 -0.1088889 -0.1088889  )
        24        Pt     tau(  24) = (  0.1088889 -0.2177778 -0.1088889  )
        25        Pt     tau(  25) = (  0.1088889 -0.1088889 -0.2177778  )
        26        Pt     tau(  26) = (  0.0000000 -0.2177778  0.0000000  )
        27        Pt     tau(  27) = (  0.0000000 -0.1088889  0.1088889  )
        28        Pt     tau(  28) = (  0.1088889 -0.2177778  0.1088889  )
        29        Pt     tau(  29) = (  0.1088889 -0.1088889  0.0000000  )
        30        Pt     tau(  30) = (  0.0000000 -0.2177778  0.2177778  )
        31        Pt     tau(  31) = (  0.1088889 -0.1088889  0.2177778  )
        32        Pt     tau(  32) = (  0.0000000  0.0000000 -0.2177778  )
        33        Pt     tau(  33) = (  0.0000000  0.1088889 -0.1088889  )
        34        Pt     tau(  34) = (  0.1088889  0.0000000 -0.1088889  )
        35        Pt     tau(  35) = (  0.1088889  0.1088889 -0.2177778  )
        36        Pt     tau(  36) = (  0.0000000  0.0000000  0.0000000  )
        37        Pt     tau(  37) = (  0.0000000  0.1088889  0.1088889  )
        38        Pt     tau(  38) = (  0.1088889  0.0000000  0.1088889  )
        39        Pt     tau(  39) = (  0.1088889  0.1088889  0.0000000  )
        40        Pt     tau(  40) = (  0.0000000  0.0000000  0.2177778  )
        41        Pt     tau(  41) = (  0.1088889  0.1088889  0.2177778  )
        42        Pt     tau(  42) = (  0.0000000  0.2177778 -0.2177778  )
        43        Pt     tau(  43) = (  0.1088889  0.2177778 -0.1088889  )
        44        Pt     tau(  44) = (  0.0000000  0.2177778  0.0000000  )
        45        Pt     tau(  45) = (  0.1088889  0.2177778  0.1088889  )
        46        Pt     tau(  46) = (  0.0000000  0.2177778  0.2177778  )
        47        Pt     tau(  47) = (  0.2177778 -0.1088889 -0.1088889  )
        48        Pt     tau(  48) = (  0.2177778 -0.2177778  0.0000000  )
        49        Pt     tau(  49) = (  0.2177778 -0.1088889  0.1088889  )
        50        Pt     tau(  50) = (  0.2177778  0.0000000 -0.2177778  )
        51        Pt     tau(  51) = (  0.2177778  0.1088889 -0.1088889  )
        52        Pt     tau(  52) = (  0.2177778  0.0000000  0.0000000  )
        53        Pt     tau(  53) = (  0.2177778  0.1088889  0.1088889  )
        54        Pt     tau(  54) = (  0.2177778  0.0000000  0.2177778  )
        55        Pt     tau(  55) = (  0.2177778  0.2177778  0.0000000  )
        56        H      tau(  56) = ( -0.2231790 -0.2231790 -0.1142901  )

     number of k points=     1  Gaussian smearing, width (Ry)=  0.0100
                       cart. coord. in units 2pi/alat
        k(    1) = (   0.0000000   0.0000000   0.0000000), wk =   1.0000000

                       cryst. coord.
        k(    1) = (   0.0000000   0.0000000   0.0000000), wk =   1.0000000

     Dense  grid:  3494625 G-vectors     FFT dimensions: ( 240, 240, 240)

     Smooth grid:  1235284 G-vectors     FFT dimensions: ( 180, 180, 180)

     Dynamical RAM for                 wfc:      34.63 MB

     Dynamical RAM for     wfc (w. buffer):     103.89 MB

     Dynamical RAM for           str. fact:       2.96 MB

     Dynamical RAM for           local pot:       0.00 MB

     Dynamical RAM for          nlocal pot:      64.94 MB

     Dynamical RAM for                qrad:       3.52 MB

     Dynamical RAM for          rho,v,vnew:      27.34 MB

     Dynamical RAM for               rhoin:       9.11 MB

     Dynamical RAM for            rho*nmix:      47.40 MB

     Dynamical RAM for           G-vectors:       5.82 MB

     Dynamical RAM for          h,s,v(r/c):       0.25 MB

     Dynamical RAM for          <psi|beta>:       4.00 MB

     Dynamical RAM for      wfcinit/wfcrot:      75.67 MB

     Dynamical RAM for           addusdens:     358.47 MB

     Dynamical RAM for          addusforce:     518.87 MB

     Estimated static dynamical RAM per process >     240.48 MB

     Estimated max dynamical RAM per process >     806.75 MB

     Estimated total dynamical RAM >      28.36 GB

     Atomic positions and unit cell read from directory:
     ./out/calc.save/
     Message from routine qexsd_readschema :
     xml data file ./out/calc.save/data-file-schema.xml not found
     Nothing found: using input atomic positions and unit cell

     Generating pointlists ...
     new r_m :   0.0472 (alat units)  1.6072 (a.u.) for type    1
     new r_m :   0.0472 (alat units)  1.6072 (a.u.) for type    2
     Cannot read rho : file not found

     Initial potential from superposition of free atoms

     starting charge     853.4994, renormalised to     881.0000

     negative rho (up, down):  5.273E+00 5.168E+00


---------------------------------------------------------------------------------
Carrying out rVV10 run using the following parameters:
Nqs =      20    Nr_points =    1024   r_max =   100.000
b_value =  6.30000    beta =  0.00901
     q_mesh =  0.00010000  0.00030000  0.00058939  0.00100810
               0.00161396  0.00249058  0.00375900  0.00559430
               0.00824984  0.01209221  0.01765183  0.02569619
               0.03733578  0.05417739  0.07854596  0.11380545
               0.16482331  0.23864234  0.34545298  0.50000000

Gradients computed in Reciprocal space

---------------------------------------------------------------------------------




     ----------------------------------------------------------------

     Non-local correlation energy =              9.743270792944763

     ----------------------------------------------------------------

     Message from routine qexsd_readschema :
     xml data file ./out/calc.save/data-file-schema.xml not found
     Cannot read wfcs: file not found
     Starting wfcs are  661 randomized atomic wfcs

     total cpu time spent up to now is       17.0 secs

     Self-consistent Calculation

     iteration #  1     ecut=    60.00 Ry     beta= 0.20
     CG style diagonalization

---- Real-time Memory Report at c_bands before calling an iterative solver
             0 MiB given to the printing process from OS
             0 MiB allocation reported by mallinfo(arena+hblkhd)
        172830 MiB available memory on the node where the printing process lives
------------------
     c_bands:  5 eigenvalues not converged
     ethr =  1.00E-05,  avg # of iterations = 21.4

     negative rho (up, down):  5.080E+00 4.992E+00


     ----------------------------------------------------------------

     Non-local correlation energy =              9.364222501736780

     ----------------------------------------------------------------


     total cpu time spent up to now is     1621.3 secs

     total energy              =  -11541.79479592 Ry
     estimated scf accuracy    <     229.50833486 Ry

     total magnetization       =     2.65 Bohr mag/cell
     absolute magnetization    =     3.18 Bohr mag/cell

     iteration #  2     ecut=    60.00 Ry     beta= 0.20
     CG style diagonalization

---- Real-time Memory Report at c_bands before calling an iterative solver
             0 MiB given to the printing process from OS
             0 MiB allocation reported by mallinfo(arena+hblkhd)
        171228 MiB available memory on the node where the printing process lives
------------------
     ethr =  1.00E-02,  avg # of iterations =  4.7

     negative rho (up, down):  5.049E+00 4.967E+00


     ----------------------------------------------------------------

     Non-local correlation energy =              9.321415171848335

     ----------------------------------------------------------------


     total cpu time spent up to now is     1943.8 secs

     total energy              =  -11559.57073814 Ry
     estimated scf accuracy    <     493.97009778 Ry

     total magnetization       =    -0.41 Bohr mag/cell
     absolute magnetization    =     5.38 Bohr mag/cell

     iteration #  3     ecut=    60.00 Ry     beta= 0.20
     CG style diagonalization

---- Real-time Memory Report at c_bands before calling an iterative solver
             0 MiB given to the printing process from OS
             0 MiB allocation reported by mallinfo(arena+hblkhd)
        171123 MiB available memory on the node where the printing process lives
------------------
     ethr =  1.00E-02,  avg # of iterations =  3.7

     negative rho (up, down):  5.002E+00 4.928E+00


     ----------------------------------------------------------------

     Non-local correlation energy =              9.277535281307381

     ----------------------------------------------------------------


     total cpu time spent up to now is     2179.2 secs

     total energy              =  -11585.86546827 Ry
     estimated scf accuracy    <      21.46049406 Ry

     total magnetization       =     3.85 Bohr mag/cell
     absolute magnetization    =     6.60 Bohr mag/cell

     iteration #  4     ecut=    60.00 Ry     beta= 0.20
     CG style diagonalization

---- Real-time Memory Report at c_bands before calling an iterative solver
             0 MiB given to the printing process from OS
             0 MiB allocation reported by mallinfo(arena+hblkhd)
        171022 MiB available memory on the node where the printing process lives
------------------
     c_bands:  1 eigenvalues not converged
     ethr =  2.44E-03,  avg # of iterations =  3.9

     negative rho (up, down):  4.987E+00 4.915E+00


     ----------------------------------------------------------------

     Non-local correlation energy =              9.265320268318234

     ----------------------------------------------------------------


     total cpu time spent up to now is     2436.0 secs

     total energy              =  -11585.78653648 Ry
     estimated scf accuracy    <     278.27502309 Ry

     total magnetization       =     1.95 Bohr mag/cell
     absolute magnetization    =     3.04 Bohr mag/cell

     iteration #  5     ecut=    60.00 Ry     beta= 0.20
     CG style diagonalization

---- Real-time Memory Report at c_bands before calling an iterative solver
             0 MiB given to the printing process from OS
             0 MiB allocation reported by mallinfo(arena+hblkhd)
        170911 MiB available memory on the node where the printing process lives
------------------
     ethr =  2.44E-03,  avg # of iterations =  3.0

     negative rho (up, down):  4.978E+00 4.909E+00


     ----------------------------------------------------------------

     Non-local correlation energy =              9.260548960135914

     ----------------------------------------------------------------


     total cpu time spent up to now is     2614.8 secs

     total energy              =  -11590.80791475 Ry
     estimated scf accuracy    <      27.16425294 Ry

     total magnetization       =     3.58 Bohr mag/cell
     absolute magnetization    =     3.88 Bohr mag/cell

     iteration #  6     ecut=    60.00 Ry     beta= 0.20
     CG style diagonalization

---- Real-time Memory Report at c_bands before calling an iterative solver
             0 MiB given to the printing process from OS
             0 MiB allocation reported by mallinfo(arena+hblkhd)
        170822 MiB available memory on the node where the printing process lives
------------------
     ethr =  2.44E-03,  avg # of iterations =  3.0

     negative rho (up, down):  4.953E+00 4.891E+00


     ----------------------------------------------------------------

     Non-local correlation energy =              9.248541805786834

     ----------------------------------------------------------------


     total cpu time spent up to now is     2792.1 secs

     total energy              =  -11590.60688994 Ry
     estimated scf accuracy    <      11.14947821 Ry

     total magnetization       =     3.97 Bohr mag/cell
     absolute magnetization    =     4.20 Bohr mag/cell

     iteration #  7     ecut=    60.00 Ry     beta= 0.20
     CG style diagonalization

---- Real-time Memory Report at c_bands before calling an iterative solver
             0 MiB given to the printing process from OS
             0 MiB allocation reported by mallinfo(arena+hblkhd)
        170726 MiB available memory on the node where the printing process lives
------------------
     ethr =  1.27E-03,  avg # of iterations =  3.1

     negative rho (up, down):  4.939E+00 4.880E+00


     ----------------------------------------------------------------

     Non-local correlation energy =              9.242602667086226

     ----------------------------------------------------------------


     total cpu time spent up to now is     2974.4 secs

     total energy              =  -11590.56568116 Ry
     estimated scf accuracy    <      34.37086554 Ry

     total magnetization       =     3.60 Bohr mag/cell
     absolute magnetization    =     3.84 Bohr mag/cell

     iteration #  8     ecut=    60.00 Ry     beta= 0.20
     CG style diagonalization

---- Real-time Memory Report at c_bands before calling an iterative solver
             0 MiB given to the printing process from OS
             0 MiB allocation reported by mallinfo(arena+hblkhd)
        170628 MiB available memory on the node where the printing process lives
------------------
     ethr =  1.27E-03,  avg # of iterations =  3.0

     negative rho (up, down):  4.925E+00 4.871E+00


     ----------------------------------------------------------------

     Non-local correlation energy =              9.238094448543798

     ----------------------------------------------------------------


     total cpu time spent up to now is     3151.5 secs

     total energy              =  -11590.82320124 Ry
     estimated scf accuracy    <      34.17879257 Ry

     total magnetization       =     3.09 Bohr mag/cell
     absolute magnetization    =     3.35 Bohr mag/cell

     iteration #  9     ecut=    60.00 Ry     beta= 0.20
     CG style diagonalization

---- Real-time Memory Report at c_bands before calling an iterative solver
             0 MiB given to the printing process from OS
             0 MiB allocation reported by mallinfo(arena+hblkhd)
        170535 MiB available memory on the node where the printing process lives
------------------
     ethr =  1.27E-03,  avg # of iterations =  3.0

     negative rho (up, down):  4.921E+00 4.868E+00


     ----------------------------------------------------------------

     Non-local correlation energy =              9.237111221238226

     ----------------------------------------------------------------


     total cpu time spent up to now is     3329.4 secs

     total energy              =  -11591.14621415 Ry
     estimated scf accuracy    <      14.52315360 Ry

     total magnetization       =     3.46 Bohr mag/cell
     absolute magnetization    =     3.69 Bohr mag/cell

     iteration # 10     ecut=    60.00 Ry     beta= 0.20
     CG style diagonalization

---- Real-time Memory Report at c_bands before calling an iterative solver
             0 MiB given to the printing process from OS
             0 MiB allocation reported by mallinfo(arena+hblkhd)
        170439 MiB available memory on the node where the printing process lives
------------------
     ethr =  1.27E-03,  avg # of iterations =  3.0

     negative rho (up, down):  4.916E+00 4.865E+00


     ----------------------------------------------------------------

     Non-local correlation energy =              9.235796248304876

     ----------------------------------------------------------------


     total cpu time spent up to now is     3506.7 secs

     total energy              =  -11591.27062059 Ry
     estimated scf accuracy    <       8.11346137 Ry

     total magnetization       =     3.57 Bohr mag/cell
     absolute magnetization    =     3.79 Bohr mag/cell

     iteration # 11     ecut=    60.00 Ry     beta= 0.20
     CG style diagonalization

---- Real-time Memory Report at c_bands before calling an iterative solver
             0 MiB given to the printing process from OS
             0 MiB allocation reported by mallinfo(arena+hblkhd)
        170441 MiB available memory on the node where the printing process lives
------------------
     ethr =  9.21E-04,  avg # of iterations =  3.0

     negative rho (up, down):  4.911E+00 4.862E+00


     ----------------------------------------------------------------

     Non-local correlation energy =              9.235327021180147

     ----------------------------------------------------------------


     total cpu time spent up to now is     3683.9 secs

     total energy              =  -11591.36773532 Ry
     estimated scf accuracy    <       1.25441360 Ry

     total magnetization       =     3.70 Bohr mag/cell
     absolute magnetization    =     3.90 Bohr mag/cell

     iteration # 12     ecut=    60.00 Ry     beta= 0.20
     CG style diagonalization

---- Real-time Memory Report at c_bands before calling an iterative solver
             0 MiB given to the printing process from OS
             0 MiB allocation reported by mallinfo(arena+hblkhd)
        170439 MiB available memory on the node where the printing process lives
------------------
     c_bands:  2 eigenvalues not converged
     c_bands:  1 eigenvalues not converged
     ethr =  1.42E-04,  avg # of iterations =  3.3

     negative rho (up, down):  4.904E+00 4.858E+00


     ----------------------------------------------------------------

     Non-local correlation energy =              9.236155755799260

     ----------------------------------------------------------------


     total cpu time spent up to now is     3886.9 secs

     total energy              =  -11591.32053579 Ry
     estimated scf accuracy    <       1.69189808 Ry

     total magnetization       =     3.80 Bohr mag/cell
     absolute magnetization    =     4.00 Bohr mag/cell

     iteration # 13     ecut=    60.00 Ry     beta= 0.20
     CG style diagonalization

---- Real-time Memory Report at c_bands before calling an iterative solver
             0 MiB given to the printing process from OS
             0 MiB allocation reported by mallinfo(arena+hblkhd)
        170432 MiB available memory on the node where the printing process lives
------------------
     ethr =  1.42E-04,  avg # of iterations =  3.0

     negative rho (up, down):  4.898E+00 4.854E+00


     ----------------------------------------------------------------

     Non-local correlation energy =              9.235520365764120

     ----------------------------------------------------------------


     total cpu time spent up to now is     4064.2 secs

     total energy              =  -11591.34340851 Ry
     estimated scf accuracy    <       1.30849829 Ry

     total magnetization       =     4.02 Bohr mag/cell
     absolute magnetization    =     4.21 Bohr mag/cell

     iteration # 14     ecut=    60.00 Ry     beta= 0.20
     CG style diagonalization

---- Real-time Memory Report at c_bands before calling an iterative solver
             0 MiB given to the printing process from OS
             0 MiB allocation reported by mallinfo(arena+hblkhd)
        170413 MiB available memory on the node where the printing process lives
------------------
     ethr =  1.42E-04,  avg # of iterations =  3.0

     negative rho (up, down):  4.891E+00 4.850E+00


     ----------------------------------------------------------------

     Non-local correlation energy =              9.235290956816524

     ----------------------------------------------------------------


     total cpu time spent up to now is     4241.5 secs

     total energy              =  -11591.36241320 Ry
     estimated scf accuracy    <       0.37422736 Ry

     total magnetization       =     3.99 Bohr mag/cell
     absolute magnetization    =     4.19 Bohr mag/cell

     iteration # 15     ecut=    60.00 Ry     beta= 0.20
     CG style diagonalization

---- Real-time Memory Report at c_bands before calling an iterative solver
             0 MiB given to the printing process from OS
             0 MiB allocation reported by mallinfo(arena+hblkhd)
        170430 MiB available memory on the node where the printing process lives
------------------
     ethr =  4.25E-05,  avg # of iterations =  3.0

     negative rho (up, down):  4.891E+00 4.850E+00


     ----------------------------------------------------------------

     Non-local correlation energy =              9.236093913270661

     ----------------------------------------------------------------


     total cpu time spent up to now is     4420.5 secs

     total energy              =  -11591.35735051 Ry
     estimated scf accuracy    <       0.64262044 Ry

     total magnetization       =     3.92 Bohr mag/cell
     absolute magnetization    =     4.11 Bohr mag/cell

     iteration # 16     ecut=    60.00 Ry     beta= 0.20
     CG style diagonalization

---- Real-time Memory Report at c_bands before calling an iterative solver
             0 MiB given to the printing process from OS
             0 MiB allocation reported by mallinfo(arena+hblkhd)
        170431 MiB available memory on the node where the printing process lives
------------------
     ethr =  4.25E-05,  avg # of iterations =  3.0

     negative rho (up, down):  4.889E+00 4.848E+00


     ----------------------------------------------------------------

     Non-local correlation energy =              9.236133491070657

     ----------------------------------------------------------------


     total cpu time spent up to now is     4597.6 secs

     total energy              =  -11591.35884469 Ry
     estimated scf accuracy    <       0.80071424 Ry

     total magnetization       =     3.88 Bohr mag/cell
     absolute magnetization    =     4.08 Bohr mag/cell

     iteration # 17     ecut=    60.00 Ry     beta= 0.20
     CG style diagonalization

---- Real-time Memory Report at c_bands before calling an iterative solver
             0 MiB given to the printing process from OS
             0 MiB allocation reported by mallinfo(arena+hblkhd)
        170434 MiB available memory on the node where the printing process lives
------------------
     ethr =  4.25E-05,  avg # of iterations =  3.0

     negative rho (up, down):  4.881E+00 4.844E+00


     ----------------------------------------------------------------

     Non-local correlation energy =              9.236083372918678

     ----------------------------------------------------------------


     total cpu time spent up to now is     4774.8 secs

     total energy              =  -11591.35955389 Ry
     estimated scf accuracy    <       0.72012010 Ry

     total magnetization       =     3.98 Bohr mag/cell
     absolute magnetization    =     4.17 Bohr mag/cell

     iteration # 18     ecut=    60.00 Ry     beta= 0.20
     CG style diagonalization

---- Real-time Memory Report at c_bands before calling an iterative solver
             0 MiB given to the printing process from OS
             0 MiB allocation reported by mallinfo(arena+hblkhd)
        170427 MiB available memory on the node where the printing process lives
------------------
     ethr =  4.25E-05,  avg # of iterations =  3.0

     negative rho (up, down):  4.878E+00 4.842E+00


     ----------------------------------------------------------------

     Non-local correlation energy =              9.235855331431065

     ----------------------------------------------------------------


     total cpu time spent up to now is     4951.9 secs

     total energy              =  -11591.36271713 Ry
     estimated scf accuracy    <       0.26624771 Ry

     total magnetization       =     3.93 Bohr mag/cell
     absolute magnetization    =     4.13 Bohr mag/cell

     iteration # 19     ecut=    60.00 Ry     beta= 0.20
     CG style diagonalization

---- Real-time Memory Report at c_bands before calling an iterative solver
             0 MiB given to the printing process from OS
             0 MiB allocation reported by mallinfo(arena+hblkhd)
        170436 MiB available memory on the node where the printing process lives
------------------
     ethr =  3.02E-05,  avg # of iterations =  3.1

     negative rho (up, down):  4.873E+00 4.840E+00


     ----------------------------------------------------------------

     Non-local correlation energy =              9.235081855114435

     ----------------------------------------------------------------


     total cpu time spent up to now is     5133.6 secs

     total energy              =  -11591.35894853 Ry
     estimated scf accuracy    <       0.54209342 Ry

     total magnetization       =     3.90 Bohr mag/cell
     absolute magnetization    =     4.10 Bohr mag/cell

     iteration # 20     ecut=    60.00 Ry     beta= 0.20
     CG style diagonalization

---- Real-time Memory Report at c_bands before calling an iterative solver
             0 MiB given to the printing process from OS
             0 MiB allocation reported by mallinfo(arena+hblkhd)
        170436 MiB available memory on the node where the printing process lives
------------------
     ethr =  3.02E-05,  avg # of iterations =  3.0

     negative rho (up, down):  4.876E+00 4.842E+00


     ----------------------------------------------------------------

     Non-local correlation energy =              9.235675123710516

     ----------------------------------------------------------------


     total cpu time spent up to now is     5311.4 secs

     total energy              =  -11591.36429816 Ry
     estimated scf accuracy    <       0.15382194 Ry

     total magnetization       =     3.92 Bohr mag/cell
     absolute magnetization    =     4.12 Bohr mag/cell

     iteration # 21     ecut=    60.00 Ry     beta= 0.20
     CG style diagonalization

---- Real-time Memory Report at c_bands before calling an iterative solver
             0 MiB given to the printing process from OS
             0 MiB allocation reported by mallinfo(arena+hblkhd)
        170432 MiB available memory on the node where the printing process lives
------------------
     ethr =  1.75E-05,  avg # of iterations =  3.0

     negative rho (up, down):  4.873E+00 4.840E+00


     ----------------------------------------------------------------

     Non-local correlation energy =              9.235275529998226

     ----------------------------------------------------------------


     total cpu time spent up to now is     5490.4 secs

     total energy              =  -11591.35153106 Ry
     estimated scf accuracy    <       1.12030173 Ry

     total magnetization       =     3.92 Bohr mag/cell
     absolute magnetization    =     4.12 Bohr mag/cell

     iteration # 22     ecut=    60.00 Ry     beta= 0.20
     CG style diagonalization

---- Real-time Memory Report at c_bands before calling an iterative solver
             0 MiB given to the printing process from OS
             0 MiB allocation reported by mallinfo(arena+hblkhd)
        170435 MiB available memory on the node where the printing process lives
------------------
     ethr =  1.75E-05,  avg # of iterations =  3.0

     negative rho (up, down):  4.869E+00 4.838E+00


     ----------------------------------------------------------------

     Non-local correlation energy =              9.234337373421019

     ----------------------------------------------------------------


     total cpu time spent up to now is     5668.2 secs

     total energy              =  -11591.36533395 Ry
     estimated scf accuracy    <       0.19063662 Ry

     total magnetization       =     3.95 Bohr mag/cell
     absolute magnetization    =     4.16 Bohr mag/cell

     iteration # 23     ecut=    60.00 Ry     beta= 0.20
     CG style diagonalization

---- Real-time Memory Report at c_bands before calling an iterative solver
             0 MiB given to the printing process from OS
             0 MiB allocation reported by mallinfo(arena+hblkhd)
        170432 MiB available memory on the node where the printing process lives
------------------
     ethr =  1.75E-05,  avg # of iterations =  3.0

     negative rho (up, down):  4.871E+00 4.839E+00


     ----------------------------------------------------------------

     Non-local correlation energy =              9.234635913201320

     ----------------------------------------------------------------


     total cpu time spent up to now is     5845.9 secs

     total energy              =  -11591.36783989 Ry
     estimated scf accuracy    <       0.07817498 Ry

     total magnetization       =     3.96 Bohr mag/cell
     absolute magnetization    =     4.17 Bohr mag/cell

     iteration # 24     ecut=    60.00 Ry     beta= 0.20
     CG style diagonalization

---- Real-time Memory Report at c_bands before calling an iterative solver
             0 MiB given to the printing process from OS
             0 MiB allocation reported by mallinfo(arena+hblkhd)
        170447 MiB available memory on the node where the printing process lives
------------------
     ethr =  8.87E-06,  avg # of iterations =  3.0

     negative rho (up, down):  4.870E+00 4.839E+00


     ----------------------------------------------------------------

     Non-local correlation energy =              9.234499809792091

     ----------------------------------------------------------------


     total cpu time spent up to now is     6026.8 secs

     total energy              =  -11591.36888936 Ry
     estimated scf accuracy    <       0.07215029 Ry

     total magnetization       =     3.96 Bohr mag/cell
     absolute magnetization    =     4.17 Bohr mag/cell

     iteration # 25     ecut=    60.00 Ry     beta= 0.20
     CG style diagonalization

---- Real-time Memory Report at c_bands before calling an iterative solver
             0 MiB given to the printing process from OS
             0 MiB allocation reported by mallinfo(arena+hblkhd)
        170433 MiB available memory on the node where the printing process lives
------------------
     ethr =  8.19E-06,  avg # of iterations =  3.0

     negative rho (up, down):  4.870E+00 4.839E+00


     ----------------------------------------------------------------

     Non-local correlation energy =              9.234424171460114

     ----------------------------------------------------------------


     total cpu time spent up to now is     6204.4 secs

     total energy              =  -11591.36959094 Ry
     estimated scf accuracy    <       0.05550591 Ry

     total magnetization       =     3.94 Bohr mag/cell
     absolute magnetization    =     4.15 Bohr mag/cell

     iteration # 26     ecut=    60.00 Ry     beta= 0.20
     CG style diagonalization

---- Real-time Memory Report at c_bands before calling an iterative solver
             0 MiB given to the printing process from OS
             0 MiB allocation reported by mallinfo(arena+hblkhd)
        170431 MiB available memory on the node where the printing process lives
------------------
     ethr =  6.30E-06,  avg # of iterations =  3.0

     negative rho (up, down):  4.870E+00 4.839E+00


     ----------------------------------------------------------------

     Non-local correlation energy =              9.234364936650405

     ----------------------------------------------------------------


     total cpu time spent up to now is     6382.8 secs

     total energy              =  -11591.37020134 Ry
     estimated scf accuracy    <       0.04167158 Ry

     total magnetization       =     3.95 Bohr mag/cell
     absolute magnetization    =     4.16 Bohr mag/cell

     iteration # 27     ecut=    60.00 Ry     beta= 0.20
     CG style diagonalization

---- Real-time Memory Report at c_bands before calling an iterative solver
             0 MiB given to the printing process from OS
             0 MiB allocation reported by mallinfo(arena+hblkhd)
        170429 MiB available memory on the node where the printing process lives
------------------
     ethr =  4.73E-06,  avg # of iterations =  3.0

     negative rho (up, down):  4.869E+00 4.839E+00


     ----------------------------------------------------------------

     Non-local correlation energy =              9.234036671902878

     ----------------------------------------------------------------


     total cpu time spent up to now is     6562.3 secs

     total energy              =  -11591.37017806 Ry
     estimated scf accuracy    <       0.04027180 Ry

     total magnetization       =     3.94 Bohr mag/cell
     absolute magnetization    =     4.15 Bohr mag/cell

     iteration # 28     ecut=    60.00 Ry     beta= 0.20
     CG style diagonalization

---- Real-time Memory Report at c_bands before calling an iterative solver
             0 MiB given to the printing process from OS
             0 MiB allocation reported by mallinfo(arena+hblkhd)
        170436 MiB available memory on the node where the printing process lives
------------------
     ethr =  4.57E-06,  avg # of iterations =  3.0

     negative rho (up, down):  4.869E+00 4.838E+00


     ----------------------------------------------------------------

     Non-local correlation energy =              9.233934624886107

     ----------------------------------------------------------------


     total cpu time spent up to now is     6740.6 secs

     total energy              =  -11591.37054937 Ry
     estimated scf accuracy    <       0.00996472 Ry

     total magnetization       =     3.96 Bohr mag/cell
     absolute magnetization    =     4.17 Bohr mag/cell

     iteration # 29     ecut=    60.00 Ry     beta= 0.20
     CG style diagonalization

---- Real-time Memory Report at c_bands before calling an iterative solver
             0 MiB given to the printing process from OS
             0 MiB allocation reported by mallinfo(arena+hblkhd)
        170425 MiB available memory on the node where the printing process lives
------------------
     ethr =  1.13E-06,  avg # of iterations =  3.1

     negative rho (up, down):  4.868E+00 4.838E+00


     ----------------------------------------------------------------

     Non-local correlation energy =              9.233763025474911

     ----------------------------------------------------------------


     total cpu time spent up to now is     6927.5 secs

     total energy              =  -11591.37054165 Ry
     estimated scf accuracy    <       0.00869441 Ry

     total magnetization       =     3.97 Bohr mag/cell
     absolute magnetization    =     4.18 Bohr mag/cell

     iteration # 30     ecut=    60.00 Ry     beta= 0.20
     CG style diagonalization

---- Real-time Memory Report at c_bands before calling an iterative solver
             0 MiB given to the printing process from OS
             0 MiB allocation reported by mallinfo(arena+hblkhd)
        170428 MiB available memory on the node where the printing process lives
------------------
     c_bands:  1 eigenvalues not converged
     ethr =  9.87E-07,  avg # of iterations =  3.0

     negative rho (up, down):  4.868E+00 4.838E+00


     ----------------------------------------------------------------

     Non-local correlation energy =              9.233471462366888

     ----------------------------------------------------------------


     total cpu time spent up to now is     7106.9 secs

     total energy              =  -11591.37032747 Ry
     estimated scf accuracy    <       0.00709346 Ry

     total magnetization       =     3.98 Bohr mag/cell
     absolute magnetization    =     4.19 Bohr mag/cell

     iteration # 31     ecut=    60.00 Ry     beta= 0.20
     CG style diagonalization

---- Real-time Memory Report at c_bands before calling an iterative solver
             0 MiB given to the printing process from OS
             0 MiB allocation reported by mallinfo(arena+hblkhd)
        170418 MiB available memory on the node where the printing process lives
------------------
     ethr =  8.05E-07,  avg # of iterations =  3.1

     negative rho (up, down):  4.868E+00 4.838E+00


     ----------------------------------------------------------------

     Non-local correlation energy =              9.233379128478283

     ----------------------------------------------------------------


     total cpu time spent up to now is     7290.3 secs

     total energy              =  -11591.36973507 Ry
     estimated scf accuracy    <       0.03965813 Ry

     total magnetization       =     3.98 Bohr mag/cell
     absolute magnetization    =     4.19 Bohr mag/cell

     iteration # 32     ecut=    60.00 Ry     beta= 0.20
     CG style diagonalization

---- Real-time Memory Report at c_bands before calling an iterative solver
             0 MiB given to the printing process from OS
             0 MiB allocation reported by mallinfo(arena+hblkhd)
        170421 MiB available memory on the node where the printing process lives
------------------
     ethr =  8.05E-07,  avg # of iterations =  3.0

     negative rho (up, down):  4.867E+00 4.838E+00


     ----------------------------------------------------------------

     Non-local correlation energy =              9.233150070743822

     ----------------------------------------------------------------


     total cpu time spent up to now is     7467.5 secs

     total energy              =  -11591.37004144 Ry
     estimated scf accuracy    <       0.01258632 Ry

     total magnetization       =     3.98 Bohr mag/cell
     absolute magnetization    =     4.20 Bohr mag/cell

     iteration # 33     ecut=    60.00 Ry     beta= 0.20
     CG style diagonalization

---- Real-time Memory Report at c_bands before calling an iterative solver
             0 MiB given to the printing process from OS
             0 MiB allocation reported by mallinfo(arena+hblkhd)
        170434 MiB available memory on the node where the printing process lives
------------------
     ethr =  8.05E-07,  avg # of iterations =  3.1

     negative rho (up, down):  4.867E+00 4.838E+00


     ----------------------------------------------------------------

     Non-local correlation energy =              9.233025140473599

     ----------------------------------------------------------------


     total cpu time spent up to now is     7654.0 secs

     total energy              =  -11591.37003885 Ry
     estimated scf accuracy    <       0.00341645 Ry

     total magnetization       =     3.99 Bohr mag/cell
     absolute magnetization    =     4.21 Bohr mag/cell

     iteration # 34     ecut=    60.00 Ry     beta= 0.20
     CG style diagonalization

---- Real-time Memory Report at c_bands before calling an iterative solver
             0 MiB given to the printing process from OS
             0 MiB allocation reported by mallinfo(arena+hblkhd)
        170414 MiB available memory on the node where the printing process lives
------------------
     ethr =  3.88E-07,  avg # of iterations =  3.0

     negative rho (up, down):  4.867E+00 4.838E+00


     ----------------------------------------------------------------

     Non-local correlation energy =              9.232869001700628

     ----------------------------------------------------------------


     total cpu time spent up to now is     7831.9 secs

     total energy              =  -11591.36975841 Ry
     estimated scf accuracy    <       0.01104291 Ry

     total magnetization       =     4.00 Bohr mag/cell
     absolute magnetization    =     4.21 Bohr mag/cell

     iteration # 35     ecut=    60.00 Ry     beta= 0.20
     CG style diagonalization

---- Real-time Memory Report at c_bands before calling an iterative solver
             0 MiB given to the printing process from OS
             0 MiB allocation reported by mallinfo(arena+hblkhd)
        170420 MiB available memory on the node where the printing process lives
------------------
     ethr =  3.88E-07,  avg # of iterations =  3.1

     negative rho (up, down):  4.867E+00 4.838E+00


     ----------------------------------------------------------------

     Non-local correlation energy =              9.232888782072264

     ----------------------------------------------------------------


     total cpu time spent up to now is     8016.3 secs

     total energy              =  -11591.36983688 Ry
     estimated scf accuracy    <       0.00744335 Ry

     total magnetization       =     4.02 Bohr mag/cell
     absolute magnetization    =     4.23 Bohr mag/cell

     iteration # 36     ecut=    60.00 Ry     beta= 0.20
     CG style diagonalization

---- Real-time Memory Report at c_bands before calling an iterative solver
             0 MiB given to the printing process from OS
             0 MiB allocation reported by mallinfo(arena+hblkhd)
        170427 MiB available memory on the node where the printing process lives
------------------
     ethr =  3.88E-07,  avg # of iterations =  3.0

     negative rho (up, down):  4.866E+00 4.838E+00


     ----------------------------------------------------------------

     Non-local correlation energy =              9.232774451436125

     ----------------------------------------------------------------


     total cpu time spent up to now is     8193.5 secs

     total energy              =  -11591.36969101 Ry
     estimated scf accuracy    <       0.01562911 Ry

     total magnetization       =     4.02 Bohr mag/cell
     absolute magnetization    =     4.23 Bohr mag/cell

     iteration # 37     ecut=    60.00 Ry     beta= 0.20
     CG style diagonalization

---- Real-time Memory Report at c_bands before calling an iterative solver
             0 MiB given to the printing process from OS
             0 MiB allocation reported by mallinfo(arena+hblkhd)
        170436 MiB available memory on the node where the printing process lives
------------------
     ethr =  3.88E-07,  avg # of iterations =  3.0

     negative rho (up, down):  4.866E+00 4.838E+00


     ----------------------------------------------------------------

     Non-local correlation energy =              9.232724586173504

     ----------------------------------------------------------------


     total cpu time spent up to now is     8373.4 secs

     total energy              =  -11591.36973385 Ry
     estimated scf accuracy    <       0.01361073 Ry

     total magnetization       =     4.03 Bohr mag/cell
     absolute magnetization    =     4.25 Bohr mag/cell

     iteration # 38     ecut=    60.00 Ry     beta= 0.20
     CG style diagonalization

---- Real-time Memory Report at c_bands before calling an iterative solver
             0 MiB given to the printing process from OS
             0 MiB allocation reported by mallinfo(arena+hblkhd)
        170417 MiB available memory on the node where the printing process lives
------------------
     ethr =  3.88E-07,  avg # of iterations =  3.0

     negative rho (up, down):  4.866E+00 4.838E+00


     ----------------------------------------------------------------

     Non-local correlation energy =              9.232734896785558

     ----------------------------------------------------------------


     total cpu time spent up to now is     8550.6 secs

     total energy              =  -11591.36994048 Ry
     estimated scf accuracy    <       0.00251572 Ry

     total magnetization       =     4.03 Bohr mag/cell
     absolute magnetization    =     4.25 Bohr mag/cell

     iteration # 39     ecut=    60.00 Ry     beta= 0.20
     CG style diagonalization

---- Real-time Memory Report at c_bands before calling an iterative solver
             0 MiB given to the printing process from OS
             0 MiB allocation reported by mallinfo(arena+hblkhd)
        170431 MiB available memory on the node where the printing process lives
------------------
     ethr =  2.86E-07,  avg # of iterations =  3.0

     negative rho (up, down):  4.866E+00 4.838E+00


     ----------------------------------------------------------------

     Non-local correlation energy =              9.232707956659370

     ----------------------------------------------------------------


     total cpu time spent up to now is     8728.0 secs

     total energy              =  -11591.36994701 Ry
     estimated scf accuracy    <       0.00297075 Ry

     total magnetization       =     4.03 Bohr mag/cell
     absolute magnetization    =     4.24 Bohr mag/cell

     iteration # 40     ecut=    60.00 Ry     beta= 0.20
     CG style diagonalization

---- Real-time Memory Report at c_bands before calling an iterative solver
             0 MiB given to the printing process from OS
             0 MiB allocation reported by mallinfo(arena+hblkhd)
        170423 MiB available memory on the node where the printing process lives
------------------
     ethr =  2.86E-07,  avg # of iterations =  3.0

     negative rho (up, down):  4.866E+00 4.838E+00


     ----------------------------------------------------------------

     Non-local correlation energy =              9.232572212985534

     ----------------------------------------------------------------


     total cpu time spent up to now is     8905.3 secs

     total energy              =  -11591.36993672 Ry
     estimated scf accuracy    <       0.00112227 Ry

     total magnetization       =     4.03 Bohr mag/cell
     absolute magnetization    =     4.25 Bohr mag/cell

     iteration # 41     ecut=    60.00 Ry     beta= 0.20
     CG style diagonalization

---- Real-time Memory Report at c_bands before calling an iterative solver
             0 MiB given to the printing process from OS
             0 MiB allocation reported by mallinfo(arena+hblkhd)
        170443 MiB available memory on the node where the printing process lives
------------------
     ethr =  1.27E-07,  avg # of iterations =  3.1

     negative rho (up, down):  4.866E+00 4.838E+00


     ----------------------------------------------------------------

     Non-local correlation energy =              9.232566247522158

     ----------------------------------------------------------------


     total cpu time spent up to now is     9087.6 secs

     total energy              =  -11591.36991427 Ry
     estimated scf accuracy    <       0.00187639 Ry

     total magnetization       =     4.05 Bohr mag/cell
     absolute magnetization    =     4.26 Bohr mag/cell

     iteration # 42     ecut=    60.00 Ry     beta= 0.20
     CG style diagonalization

---- Real-time Memory Report at c_bands before calling an iterative solver
             0 MiB given to the printing process from OS
             0 MiB allocation reported by mallinfo(arena+hblkhd)
        170437 MiB available memory on the node where the printing process lives
------------------
     ethr =  1.27E-07,  avg # of iterations =  3.0

     negative rho (up, down):  4.866E+00 4.838E+00


     ----------------------------------------------------------------

     Non-local correlation energy =              9.232514795510466

     ----------------------------------------------------------------


     total cpu time spent up to now is     9265.0 secs

     total energy              =  -11591.36991787 Ry
     estimated scf accuracy    <       0.00155826 Ry

     total magnetization       =     4.05 Bohr mag/cell
     absolute magnetization    =     4.26 Bohr mag/cell

     iteration # 43     ecut=    60.00 Ry     beta= 0.20
     CG style diagonalization

---- Real-time Memory Report at c_bands before calling an iterative solver
             0 MiB given to the printing process from OS
             0 MiB allocation reported by mallinfo(arena+hblkhd)
        170439 MiB available memory on the node where the printing process lives
------------------
     ethr =  1.27E-07,  avg # of iterations =  3.0

     negative rho (up, down):  4.866E+00 4.838E+00


     ----------------------------------------------------------------

     Non-local correlation energy =              9.232421937459513

     ----------------------------------------------------------------


     total cpu time spent up to now is     9442.7 secs

     total energy              =  -11591.36992377 Ry
     estimated scf accuracy    <       0.00027122 Ry

     total magnetization       =     4.05 Bohr mag/cell
     absolute magnetization    =     4.27 Bohr mag/cell

     iteration # 44     ecut=    60.00 Ry     beta= 0.20
     CG style diagonalization

---- Real-time Memory Report at c_bands before calling an iterative solver
             0 MiB given to the printing process from OS
             0 MiB allocation reported by mallinfo(arena+hblkhd)
        170439 MiB available memory on the node where the printing process lives
------------------
     ethr =  3.08E-08,  avg # of iterations =  3.0

     negative rho (up, down):  4.866E+00 4.838E+00


     ----------------------------------------------------------------

     Non-local correlation energy =              9.232331685196103

     ----------------------------------------------------------------


     total cpu time spent up to now is     9620.1 secs

     total energy              =  -11591.36991889 Ry
     estimated scf accuracy    <       0.00061026 Ry

     total magnetization       =     4.07 Bohr mag/cell
     absolute magnetization    =     4.29 Bohr mag/cell

     iteration # 45     ecut=    60.00 Ry     beta= 0.20
     CG style diagonalization

---- Real-time Memory Report at c_bands before calling an iterative solver
             0 MiB given to the printing process from OS
             0 MiB allocation reported by mallinfo(arena+hblkhd)
        170439 MiB available memory on the node where the printing process lives
------------------
     ethr =  3.08E-08,  avg # of iterations =  3.0

     negative rho (up, down):  4.866E+00 4.838E+00


     ----------------------------------------------------------------

     Non-local correlation energy =              9.232249094760101

     ----------------------------------------------------------------


     total cpu time spent up to now is     9797.3 secs

     total energy              =  -11591.36993243 Ry
     estimated scf accuracy    <       0.00064879 Ry

     total magnetization       =     4.08 Bohr mag/cell
     absolute magnetization    =     4.30 Bohr mag/cell

     iteration # 46     ecut=    60.00 Ry     beta= 0.20
     CG style diagonalization

---- Real-time Memory Report at c_bands before calling an iterative solver
             0 MiB given to the printing process from OS
             0 MiB allocation reported by mallinfo(arena+hblkhd)
        170448 MiB available memory on the node where the printing process lives
------------------
     ethr =  3.08E-08,  avg # of iterations =  3.0

     negative rho (up, down):  4.866E+00 4.838E+00


     ----------------------------------------------------------------

     Non-local correlation energy =              9.232178926091109

     ----------------------------------------------------------------


     total cpu time spent up to now is     9974.5 secs

     total energy              =  -11591.36993932 Ry
     estimated scf accuracy    <       0.00178408 Ry

     total magnetization       =     4.10 Bohr mag/cell
     absolute magnetization    =     4.32 Bohr mag/cell

     iteration # 47     ecut=    60.00 Ry     beta= 0.20
     CG style diagonalization

---- Real-time Memory Report at c_bands before calling an iterative solver
             0 MiB given to the printing process from OS
             0 MiB allocation reported by mallinfo(arena+hblkhd)
        170435 MiB available memory on the node where the printing process lives
------------------
     ethr =  3.08E-08,  avg # of iterations =  3.0

     negative rho (up, down):  4.866E+00 4.838E+00


     ----------------------------------------------------------------

     Non-local correlation energy =              9.232218133303860

     ----------------------------------------------------------------


     total cpu time spent up to now is    10151.8 secs

     total energy              =  -11591.36993324 Ry
     estimated scf accuracy    <       0.00130050 Ry

     total magnetization       =     4.11 Bohr mag/cell
     absolute magnetization    =     4.33 Bohr mag/cell

     iteration # 48     ecut=    60.00 Ry     beta= 0.20
     CG style diagonalization

---- Real-time Memory Report at c_bands before calling an iterative solver
             0 MiB given to the printing process from OS
             0 MiB allocation reported by mallinfo(arena+hblkhd)
        170436 MiB available memory on the node where the printing process lives
------------------
     ethr =  3.08E-08,  avg # of iterations =  3.0

     negative rho (up, down):  4.866E+00 4.838E+00


     ----------------------------------------------------------------

     Non-local correlation energy =              9.232198659627205

     ----------------------------------------------------------------


     total cpu time spent up to now is    10329.0 secs

     total energy              =  -11591.36995182 Ry
     estimated scf accuracy    <       0.00062348 Ry

     total magnetization       =     4.11 Bohr mag/cell
     absolute magnetization    =     4.33 Bohr mag/cell

     iteration # 49     ecut=    60.00 Ry     beta= 0.20
     CG style diagonalization

---- Real-time Memory Report at c_bands before calling an iterative solver
             0 MiB given to the printing process from OS
             0 MiB allocation reported by mallinfo(arena+hblkhd)
        170431 MiB available memory on the node where the printing process lives
------------------
     ethr =  3.08E-08,  avg # of iterations =  3.0

     negative rho (up, down):  4.866E+00 4.838E+00


     ----------------------------------------------------------------

     Non-local correlation energy =              9.232225368905290

     ----------------------------------------------------------------


     total cpu time spent up to now is    10506.7 secs

     total energy              =  -11591.36993070 Ry
     estimated scf accuracy    <       0.00122280 Ry

     total magnetization       =     4.12 Bohr mag/cell
     absolute magnetization    =     4.34 Bohr mag/cell

     iteration # 50     ecut=    60.00 Ry     beta= 0.20
     CG style diagonalization

---- Real-time Memory Report at c_bands before calling an iterative solver
             0 MiB given to the printing process from OS
             0 MiB allocation reported by mallinfo(arena+hblkhd)
        170427 MiB available memory on the node where the printing process lives
------------------
     ethr =  3.08E-08,  avg # of iterations =  3.0

     negative rho (up, down):  4.866E+00 4.838E+00


     ----------------------------------------------------------------

     Non-local correlation energy =              9.232113644692125

     ----------------------------------------------------------------


     total cpu time spent up to now is    10684.0 secs

     total energy              =  -11591.36998362 Ry
     estimated scf accuracy    <       0.00117629 Ry

     total magnetization       =     4.11 Bohr mag/cell
     absolute magnetization    =     4.33 Bohr mag/cell

     iteration # 51     ecut=    60.00 Ry     beta= 0.20
     CG style diagonalization

---- Real-time Memory Report at c_bands before calling an iterative solver
             0 MiB given to the printing process from OS
             0 MiB allocation reported by mallinfo(arena+hblkhd)
        170431 MiB available memory on the node where the printing process lives
------------------
     ethr =  3.08E-08,  avg # of iterations =  3.0

     negative rho (up, down):  4.866E+00 4.838E+00


     ----------------------------------------------------------------

     Non-local correlation energy =              9.232119369958255

     ----------------------------------------------------------------


     total cpu time spent up to now is    10861.2 secs

     total energy              =  -11591.36999062 Ry
     estimated scf accuracy    <       0.00046641 Ry

     total magnetization       =     4.14 Bohr mag/cell
     absolute magnetization    =     4.36 Bohr mag/cell

     iteration # 52     ecut=    60.00 Ry     beta= 0.20
     CG style diagonalization

---- Real-time Memory Report at c_bands before calling an iterative solver
             0 MiB given to the printing process from OS
             0 MiB allocation reported by mallinfo(arena+hblkhd)
        170423 MiB available memory on the node where the printing process lives
------------------
     ethr =  3.08E-08,  avg # of iterations =  3.0

     negative rho (up, down):  4.866E+00 4.838E+00


     ----------------------------------------------------------------

     Non-local correlation energy =              9.232138138789217

     ----------------------------------------------------------------


     total cpu time spent up to now is    11038.6 secs

     total energy              =  -11591.36998273 Ry
     estimated scf accuracy    <       0.00077678 Ry

     total magnetization       =     4.14 Bohr mag/cell
     absolute magnetization    =     4.36 Bohr mag/cell

     iteration # 53     ecut=    60.00 Ry     beta= 0.20
     CG style diagonalization

---- Real-time Memory Report at c_bands before calling an iterative solver
             0 MiB given to the printing process from OS
             0 MiB allocation reported by mallinfo(arena+hblkhd)
        170438 MiB available memory on the node where the printing process lives
------------------
     ethr =  3.08E-08,  avg # of iterations =  3.0

     negative rho (up, down):  4.866E+00 4.838E+00


     ----------------------------------------------------------------

     Non-local correlation energy =              9.232101585056569

     ----------------------------------------------------------------


     total cpu time spent up to now is    11215.9 secs

     total energy              =  -11591.37000876 Ry
     estimated scf accuracy    <       0.00010626 Ry

     total magnetization       =     4.13 Bohr mag/cell
     absolute magnetization    =     4.36 Bohr mag/cell

     iteration # 54     ecut=    60.00 Ry     beta= 0.20
     CG style diagonalization

---- Real-time Memory Report at c_bands before calling an iterative solver
             0 MiB given to the printing process from OS
             0 MiB allocation reported by mallinfo(arena+hblkhd)
        170442 MiB available memory on the node where the printing process lives
------------------
     ethr =  1.21E-08,  avg # of iterations =  3.0

     negative rho (up, down):  4.866E+00 4.838E+00


     ----------------------------------------------------------------

     Non-local correlation energy =              9.232075348045189

     ----------------------------------------------------------------


     total cpu time spent up to now is    11393.2 secs

     total energy              =  -11591.37002155 Ry
     estimated scf accuracy    <       0.00006735 Ry

     total magnetization       =     4.15 Bohr mag/cell
     absolute magnetization    =     4.37 Bohr mag/cell

     iteration # 55     ecut=    60.00 Ry     beta= 0.20
     CG style diagonalization

---- Real-time Memory Report at c_bands before calling an iterative solver
             0 MiB given to the printing process from OS
             0 MiB allocation reported by mallinfo(arena+hblkhd)
        170442 MiB available memory on the node where the printing process lives
------------------
     ethr =  7.64E-09,  avg # of iterations =  3.0

     negative rho (up, down):  4.866E+00 4.838E+00


     ----------------------------------------------------------------

     Non-local correlation energy =              9.232039779593142

     ----------------------------------------------------------------


     total cpu time spent up to now is    11570.4 secs

     total energy              =  -11591.37003853 Ry
     estimated scf accuracy    <       0.00005381 Ry

     total magnetization       =     4.16 Bohr mag/cell
     absolute magnetization    =     4.38 Bohr mag/cell

     iteration # 56     ecut=    60.00 Ry     beta= 0.20
     CG style diagonalization

---- Real-time Memory Report at c_bands before calling an iterative solver
             0 MiB given to the printing process from OS
             0 MiB allocation reported by mallinfo(arena+hblkhd)
        170434 MiB available memory on the node where the printing process lives
------------------
     ethr =  6.11E-09,  avg # of iterations =  3.0

     negative rho (up, down):  4.866E+00 4.838E+00


     ----------------------------------------------------------------

     Non-local correlation energy =              9.232029177982351

     ----------------------------------------------------------------


     total cpu time spent up to now is    11747.6 secs

     total energy              =  -11591.37004242 Ry
     estimated scf accuracy    <       0.00010363 Ry

     total magnetization       =     4.18 Bohr mag/cell
     absolute magnetization    =     4.40 Bohr mag/cell

     iteration # 57     ecut=    60.00 Ry     beta= 0.20
     CG style diagonalization

---- Real-time Memory Report at c_bands before calling an iterative solver
             0 MiB given to the printing process from OS
             0 MiB allocation reported by mallinfo(arena+hblkhd)
        170445 MiB available memory on the node where the printing process lives
------------------
     ethr =  6.11E-09,  avg # of iterations =  3.0

     negative rho (up, down):  4.866E+00 4.838E+00


     ----------------------------------------------------------------

     Non-local correlation energy =              9.232016774670772

     ----------------------------------------------------------------


     total cpu time spent up to now is    11924.9 secs

     total energy              =  -11591.37004870 Ry
     estimated scf accuracy    <       0.00011394 Ry

     total magnetization       =     4.18 Bohr mag/cell
     absolute magnetization    =     4.41 Bohr mag/cell

     iteration # 58     ecut=    60.00 Ry     beta= 0.20
     CG style diagonalization

---- Real-time Memory Report at c_bands before calling an iterative solver
             0 MiB given to the printing process from OS
             0 MiB allocation reported by mallinfo(arena+hblkhd)
        170438 MiB available memory on the node where the printing process lives
------------------
     ethr =  6.11E-09,  avg # of iterations =  3.0

     negative rho (up, down):  4.866E+00 4.838E+00


     ----------------------------------------------------------------

     Non-local correlation energy =              9.231979778494569

     ----------------------------------------------------------------


     total cpu time spent up to now is    12102.2 secs

     total energy              =  -11591.37006514 Ry
     estimated scf accuracy    <       0.00010444 Ry

     total magnetization       =     4.19 Bohr mag/cell
     absolute magnetization    =     4.42 Bohr mag/cell

     iteration # 59     ecut=    60.00 Ry     beta= 0.20
     CG style diagonalization

---- Real-time Memory Report at c_bands before calling an iterative solver
             0 MiB given to the printing process from OS
             0 MiB allocation reported by mallinfo(arena+hblkhd)
        170456 MiB available memory on the node where the printing process lives
------------------
     ethr =  6.11E-09,  avg # of iterations =  3.0

     negative rho (up, down):  4.866E+00 4.838E+00


     ----------------------------------------------------------------

     Non-local correlation energy =              9.231969303961908

     ----------------------------------------------------------------


     total cpu time spent up to now is    12280.5 secs

     total energy              =  -11591.37006920 Ry
     estimated scf accuracy    <       0.00013118 Ry

     total magnetization       =     4.21 Bohr mag/cell
     absolute magnetization    =     4.44 Bohr mag/cell

     iteration # 60     ecut=    60.00 Ry     beta= 0.20
     CG style diagonalization

---- Real-time Memory Report at c_bands before calling an iterative solver
             0 MiB given to the printing process from OS
             0 MiB allocation reported by mallinfo(arena+hblkhd)
        170451 MiB available memory on the node where the printing process lives
------------------
     ethr =  6.11E-09,  avg # of iterations =  3.0

     negative rho (up, down):  4.867E+00 4.838E+00


     ----------------------------------------------------------------

     Non-local correlation energy =              9.231835555555152

     ----------------------------------------------------------------

 
     Magnetic moment per site  (integrated on atomic sphere of radius R)
     atom   1 (R=0.047)  charge= 11.2519  magn=  0.0370
     atom   2 (R=0.047)  charge= 11.2513  magn=  0.0366
     atom   3 (R=0.047)  charge= 11.2578  magn=  0.0459
     atom   4 (R=0.047)  charge= 11.2674  magn=  0.0598
     atom   5 (R=0.047)  charge= 11.2526  magn=  0.0487
     atom   6 (R=0.047)  charge= 11.2522  magn=  0.0490
     atom   7 (R=0.047)  charge= 11.2322  magn=  0.0675
     atom   8 (R=0.047)  charge= 11.2534  magn=  0.0460
     atom   9 (R=0.047)  charge= 11.2741  magn=  0.0725
     atom  10 (R=0.047)  charge= 11.2562  magn=  0.0511
     atom  11 (R=0.047)  charge= 11.2384  magn=  0.0683
     atom  12 (R=0.047)  charge= 11.2581  magn=  0.0504
     atom  13 (R=0.047)  charge= 11.2424  magn=  0.0264
     atom  14 (R=0.047)  charge= 11.2555  magn=  0.0470
     atom  15 (R=0.047)  charge= 11.2348  magn=  0.0681
     atom  16 (R=0.047)  charge= 11.2357  magn=  0.0691
     atom  17 (R=0.047)  charge= 11.2722  magn=  0.0711
     atom  18 (R=0.047)  charge= 11.2558  magn=  0.0477
     atom  19 (R=0.047)  charge= 11.2571  magn=  0.0502
     atom  20 (R=0.047)  charge= 11.2718  magn=  0.0719
     atom  21 (R=0.047)  charge= 11.2550  magn=  0.0481
     atom  22 (R=0.047)  charge= 11.2717  magn=  0.0711
     atom  23 (R=0.047)  charge= 11.2373  magn=  0.0680
     atom  24 (R=0.047)  charge= 11.2544  magn=  0.0509
     atom  25 (R=0.047)  charge= 11.2553  magn=  0.0492
     atom  26 (R=0.047)  charge= 11.2418  magn=  0.0263
     atom  27 (R=0.047)  charge= 11.2342  magn=  0.0689
     atom  28 (R=0.047)  charge= 11.2546  magn=  0.0475
     atom  29 (R=0.047)  charge= 11.2354  magn=  0.0692
     atom  30 (R=0.047)  charge= 11.2705  magn=  0.0722
     atom  31 (R=0.047)  charge= 11.2545  magn=  0.0486
     atom  32 (R=0.047)  charge= 11.2435  magn=  0.0270
     atom  33 (R=0.047)  charge= 11.2407  magn=  0.0719
     atom  34 (R=0.047)  charge= 11.2396  magn=  0.0704
     atom  35 (R=0.047)  charge= 11.2576  magn=  0.0484
     atom  36 (R=0.047)  charge= 11.2048  magn=  0.1095
     atom  37 (R=0.047)  charge= 11.2359  magn=  0.0695
     atom  38 (R=0.047)  charge= 11.2359  magn=  0.0695
     atom  39 (R=0.047)  charge= 11.2359  magn=  0.0677
     atom  40 (R=0.047)  charge= 11.2424  magn=  0.0263
     atom  41 (R=0.047)  charge= 11.2545  magn=  0.0478
     atom  42 (R=0.047)  charge= 11.2759  magn=  0.0705
     atom  43 (R=0.047)  charge= 11.2570  magn=  0.0536
     atom  44 (R=0.047)  charge= 11.2432  magn=  0.0269
     atom  45 (R=0.047)  charge= 11.2552  magn=  0.0517
     atom  46 (R=0.047)  charge= 11.2714  magn=  0.0767
     atom  47 (R=0.047)  charge= 11.2555  magn=  0.0500
     atom  48 (R=0.047)  charge= 11.2710  magn=  0.0720
     atom  49 (R=0.047)  charge= 11.2547  magn=  0.0485
     atom  50 (R=0.047)  charge= 11.2735  magn=  0.0694
     atom  51 (R=0.047)  charge= 11.2566  magn=  0.0532
     atom  52 (R=0.047)  charge= 11.2434  magn=  0.0263
     atom  53 (R=0.047)  charge= 11.2553  magn=  0.0515
     atom  54 (R=0.047)  charge= 11.2706  magn=  0.0767
     atom  55 (R=0.047)  charge= 11.2712  magn=  0.0766
     atom  56 (R=0.047)  charge=  1.0526  magn=  0.0004

     total cpu time spent up to now is    12457.7 secs

     End of self-consistent calculation

 ------ SPIN UP ------------


[...]
     atom   12 type  1   force =     0.00783913   -0.00887573    0.02577672
     atom   13 type  1   force =     0.02984169    0.00020316    0.00069552
     atom   14 type  1   force =     0.02547997   -0.00796547   -0.00819952
     atom   15 type  1   force =    -0.00487232   -0.00015007    0.00440018
     atom   16 type  1   force =    -0.00474291    0.00452228    0.00006121
     atom   17 type  1   force =     0.01217658   -0.00034388   -0.01284194
     atom   18 type  1   force =     0.00768551   -0.00885766   -0.02579713
     atom   19 type  1   force =     0.00840765   -0.02591166    0.00816787
     atom   20 type  1   force =     0.01293889   -0.01274170   -0.00034684
     atom   21 type  1   force =     0.00825930   -0.02565399   -0.00832140
     atom   22 type  1   force =    -0.00048951    0.01265870    0.01366543
     atom   23 type  1   force =     0.00042669   -0.00397394   -0.00420168
     atom   24 type  1   force =    -0.00828560    0.02558127    0.00854088
     atom   25 type  1   force =    -0.00887572    0.00783912    0.02577669
     atom   26 type  1   force =     0.00020317    0.02984169    0.00069552
     atom   27 type  1   force =    -0.00015007   -0.00487232    0.00440018
     atom   28 type  1   force =    -0.00796546    0.02547994   -0.00819951
     atom   29 type  1   force =     0.00452228   -0.00474291    0.00006121
     atom   30 type  1   force =    -0.00034388    0.01217654   -0.01284189
     atom   31 type  1   force =    -0.00885765    0.00768550   -0.02579710
     atom   32 type  1   force =    -0.00019496   -0.00019496    0.03022681
     atom   33 type  1   force =     0.00014602    0.00473408   -0.00477509
     atom   34 type  1   force =     0.00473409    0.00014601   -0.00477509
     atom   35 type  1   force =    -0.00782059   -0.00782059    0.02466939
     atom   36 type  1   force =     0.00051496    0.00051496    0.00041773
     atom   37 type  1   force =    -0.00001680    0.00469782    0.00472502
     atom   38 type  1   force =     0.00469782   -0.00001681    0.00472502
     atom   39 type  1   force =     0.00542258    0.00542258    0.00025383
     atom   40 type  1   force =    -0.00028088   -0.00028088   -0.03096481
     atom   41 type  1   force =    -0.00830074   -0.00830074   -0.02517680
     atom   42 type  1   force =     0.00037453   -0.01302060    0.01352110
     atom   43 type  1   force =    -0.00810039   -0.02586916    0.00848040
     atom   44 type  1   force =     0.00033511   -0.03058735   -0.00010232
     atom   45 type  1   force =    -0.00837344   -0.02559202   -0.00821217
     atom   46 type  1   force =     0.00055778   -0.01173707   -0.01265125
     atom   47 type  1   force =    -0.02591163    0.00840764    0.00816786
     atom   48 type  1   force =    -0.01274162    0.01293880   -0.00034684
     atom   49 type  1   force =    -0.02565395    0.00825928   -0.00832139
     atom   50 type  1   force =    -0.01302055    0.00037454    0.01352104
     atom   51 type  1   force =    -0.02586915   -0.00810039    0.00848040
     atom   52 type  1   force =    -0.03058736    0.00033510   -0.00010232
     atom   53 type  1   force =    -0.02559201   -0.00837344   -0.00821217
     atom   54 type  1   force =    -0.01173702    0.00055779   -0.01265118
     atom   55 type  1   force =    -0.01341979   -0.01341977   -0.00096823
     atom   56 type  2   force =     0.00000000    0.00000000    0.00000000
     The Hubbard contrib.    to forces
     atom    1 type  1   force =     0.00000000    0.00000000    0.00000000
     atom    2 type  1   force =     0.00000000    0.00000000    0.00000000
     atom    3 type  1   force =     0.00000000    0.00000000    0.00000000
     atom    4 type  1   force =     0.00000000    0.00000000    0.00000000
     atom    5 type  1   force =     0.00000000    0.00000000    0.00000000
     atom    6 type  1   force =     0.00000000    0.00000000    0.00000000
     atom    7 type  1   force =     0.00000000    0.00000000    0.00000000
     atom    8 type  1   force =     0.00000000    0.00000000    0.00000000
     atom    9 type  1   force =     0.00000000    0.00000000    0.00000000
     atom   10 type  1   force =     0.00000000    0.00000000    0.00000000
     atom   11 type  1   force =     0.00000000    0.00000000    0.00000000
     atom   12 type  1   force =     0.00000000    0.00000000    0.00000000
     atom   13 type  1   force =     0.00000000    0.00000000    0.00000000
     atom   14 type  1   force =     0.00000000    0.00000000    0.00000000
     atom   15 type  1   force =     0.00000000    0.00000000    0.00000000
     atom   16 type  1   force =     0.00000000    0.00000000    0.00000000
     atom   17 type  1   force =     0.00000000    0.00000000    0.00000000
     atom   18 type  1   force =     0.00000000    0.00000000    0.00000000
     atom   19 type  1   force =     0.00000000    0.00000000    0.00000000
     atom   20 type  1   force =     0.00000000    0.00000000    0.00000000
     atom   21 type  1   force =     0.00000000    0.00000000    0.00000000
     atom   22 type  1   force =     0.00000000    0.00000000    0.00000000
     atom   23 type  1   force =     0.00000000    0.00000000    0.00000000
     atom   24 type  1   force =     0.00000000    0.00000000    0.00000000
     atom   25 type  1   force =     0.00000000    0.00000000    0.00000000
     atom   26 type  1   force =     0.00000000    0.00000000    0.00000000
     atom   27 type  1   force =     0.00000000    0.00000000    0.00000000
     atom   28 type  1   force =     0.00000000    0.00000000    0.00000000
     atom   29 type  1   force =     0.00000000    0.00000000    0.00000000
     atom   30 type  1   force =     0.00000000    0.00000000    0.00000000
     atom   31 type  1   force =     0.00000000    0.00000000    0.00000000
     atom   32 type  1   force =     0.00000000    0.00000000    0.00000000
     atom   33 type  1   force =     0.00000000    0.00000000    0.00000000
     atom   34 type  1   force =     0.00000000    0.00000000    0.00000000
     atom   35 type  1   force =     0.00000000    0.00000000    0.00000000
     atom   36 type  1   force =     0.00000000    0.00000000    0.00000000
     atom   37 type  1   force =     0.00000000    0.00000000    0.00000000
     atom   38 type  1   force =     0.00000000    0.00000000    0.00000000
     atom   39 type  1   force =     0.00000000    0.00000000    0.00000000
     atom   40 type  1   force =     0.00000000    0.00000000    0.00000000
     atom   41 type  1   force =     0.00000000    0.00000000    0.00000000
     atom   42 type  1   force =     0.00000000    0.00000000    0.00000000
     atom   43 type  1   force =     0.00000000    0.00000000    0.00000000
     atom   44 type  1   force =     0.00000000    0.00000000    0.00000000
     atom   45 type  1   force =     0.00000000    0.00000000    0.00000000
     atom   46 type  1   force =     0.00000000    0.00000000    0.00000000
     atom   47 type  1   force =     0.00000000    0.00000000    0.00000000
     atom   48 type  1   force =     0.00000000    0.00000000    0.00000000
     atom   49 type  1   force =     0.00000000    0.00000000    0.00000000
     atom   50 type  1   force =     0.00000000    0.00000000    0.00000000
     atom   51 type  1   force =     0.00000000    0.00000000    0.00000000
     atom   52 type  1   force =     0.00000000    0.00000000    0.00000000
     atom   53 type  1   force =     0.00000000    0.00000000    0.00000000
     atom   54 type  1   force =     0.00000000    0.00000000    0.00000000
     atom   55 type  1   force =     0.00000000    0.00000000    0.00000000
     atom   56 type  2   force =     0.00000000    0.00000000    0.00000000
     The SCF correction term to forces
     atom    1 type  1   force =    -0.00002405   -0.00005303   -0.00002135
     atom    2 type  1   force =    -0.00004518   -0.00002522   -0.00002060
     atom    3 type  1   force =    -0.00002375   -0.00003105   -0.00002189
     atom    4 type  1   force =    -0.00002887   -0.00003228   -0.00002502
     atom    5 type  1   force =    -0.00005507   -0.00005781   -0.00002427
     atom    6 type  1   force =    -0.00004923   -0.00005643   -0.00002465
     atom    7 type  1   force =    -0.00008112   -0.00009159   -0.00003841
     atom    8 type  1   force =    -0.00001649   -0.00002478    0.00003198
     atom    9 type  1   force =    -0.00000960   -0.00003587   -0.00002872
     atom   10 type  1   force =    -0.00004583    0.00000005   -0.00004893
     atom   11 type  1   force =    -0.00005436   -0.00004968   -0.00008483
     atom   12 type  1   force =    -0.00000729   -0.00001119   -0.00006880
     atom   13 type  1   force =    -0.00006538   -0.00004011   -0.00002080
     atom   14 type  1   force =    -0.00003897    0.00003620    0.00004366
     atom   15 type  1   force =    -0.00003543    0.00000862    0.00004705
     atom   16 type  1   force =    -0.00003197    0.00004552    0.00001638
     atom   17 type  1   force =    -0.00003146    0.00001284    0.00003251
     atom   18 type  1   force =     0.00002813    0.00006362    0.00005299
     atom   19 type  1   force =    -0.00001144    0.00004591   -0.00004571
     atom   20 type  1   force =    -0.00003391    0.00004428    0.00001822
     atom   21 type  1   force =     0.00001893    0.00004932    0.00008250
     atom   22 type  1   force =    -0.00002917   -0.00000845   -0.00002431
     atom   23 type  1   force =    -0.00003600   -0.00006233   -0.00008248
     atom   24 type  1   force =     0.00000498   -0.00003925   -0.00004335
     atom   25 type  1   force =    -0.00000581   -0.00000995   -0.00006101
     atom   26 type  1   force =    -0.00002965   -0.00006173   -0.00002027
     atom   27 type  1   force =     0.00002296   -0.00004411    0.00004529
     atom   28 type  1   force =     0.00004098   -0.00003214    0.00003889
     atom   29 type  1   force =     0.00005560   -0.00003749    0.00001696
     atom   30 type  1   force =     0.00001999   -0.00003027    0.00002798
     atom   31 type  1   force =     0.00006899    0.00002510    0.00004507
     atom   32 type  1   force =    -0.00000861   -0.00001879   -0.00006978
     atom   33 type  1   force =     0.00001323    0.00002416   -0.00008892
     atom   34 type  1   force =     0.00003633   -0.00000050   -0.00008610
     atom   35 type  1   force =     0.00000953   -0.00000050   -0.00006458
     atom   36 type  1   force =     0.00000980   -0.00000749    0.00000261
     atom   37 type  1   force =     0.00004800    0.00007544    0.00011731
     atom   38 type  1   force =     0.00008794    0.00003367    0.00011496
     atom   39 type  1   force =     0.00006435    0.00004932    0.00004901
     atom   40 type  1   force =     0.00005889    0.00004777    0.00005830
     atom   41 type  1   force =     0.00003585    0.00002517    0.00003667
     atom   42 type  1   force =     0.00001244    0.00000899   -0.00005913
     atom   43 type  1   force =     0.00003356    0.00003352   -0.00003281
     atom   44 type  1   force =     0.00002454    0.00006134    0.00004636
     atom   45 type  1   force =     0.00002313    0.00001424    0.00008379
     atom   46 type  1   force =     0.00003052    0.00001182    0.00004075
     atom   47 type  1   force =     0.00004133   -0.00001265   -0.00003928
     atom   48 type  1   force =     0.00003987   -0.00002628    0.00001856
     atom   49 type  1   force =     0.00004441    0.00001765    0.00007666
     atom   50 type  1   force =     0.00000906    0.00000566   -0.00005276
     atom   51 type  1   force =     0.00003666    0.00002194   -0.00003127
     atom   52 type  1   force =     0.00005856    0.00001408    0.00004665
     atom   53 type  1   force =     0.00001751    0.00001115    0.00008244
     atom   54 type  1   force =     0.00001172    0.00002330    0.00003437
     atom   55 type  1   force =     0.00002730    0.00002085    0.00003576
     atom   56 type  2   force =     0.00000009   -0.00000011    0.00000177

     Total force =     0.003637     Total SCF correction =     0.000561
     SCF correction compared to forces is large: reduce conv_thr to get better values
     Energy error            =      2.8E-05 Ry
     Gradient error          =      7.3E-04 Ry/Bohr

     bfgs converged in  27 scf cycles and  26 bfgs steps
     (criteria: energy <  1.0E-04 Ry, force <  1.0E-03 Ry/Bohr)

     End of BFGS Geometry Optimization

     Final energy             =  -11591.5161448697 Ry

     File ./out/calc.bfgs deleted, as requested
Begin final coordinates

ATOMIC_POSITIONS (angstrom)
Pt              -3.9493486830       -1.9418185786       -2.0343155556
Pt              -1.9418185786       -3.9493486830       -2.0343155556
Pt              -1.8729666595       -1.8729666595       -4.0085748109
Pt              -3.7819414338       -3.7819414338        0.0277379960
Pt              -3.9174220933       -1.9222628442        1.9700677527
Pt              -1.9222628442       -3.9174220933        1.9700677527
Pt              -1.9392679668       -1.9392679668       -0.0214153541
Pt              -1.9007617310       -1.9007617310        3.9796083553
Pt              -3.8070478028        0.0226545521       -3.8408658822
Pt              -3.9505304528        1.8933692166       -1.8996445341
Pt              -1.9463212260       -0.0181809576       -1.9434246687
Pt              -1.9135567605        1.9232149492       -3.9188012490
Pt              -4.1237968117       -0.0748017774       -0.0193931205
Pt              -3.9377842116        1.8718642575        1.8907852009
Pt              -1.9341910160       -0.0161948684        1.9247995152
Pt              -1.9387323552        1.9124343011       -0.0132728088
Pt              -3.7819722546        0.0186198659        3.8557547178
Pt              -1.9115050311        1.9198936054        3.9194711107
Pt              -1.9201107972        3.9362831725       -1.9015121493
Pt              -3.8199925301        3.7950133429        0.0011293437
Pt              -1.9106655064        3.9271042830        1.8945975899
Pt               0.0226545521       -3.8070478028       -3.8408658822
Pt              -0.0181809576       -1.9463212260       -1.9434246687
Pt               1.8933692166       -3.9505304528       -1.8996445341
Pt               1.9232149492       -1.9135567605       -3.9188012490
Pt              -0.0748017774       -4.1237968117       -0.0193931205
Pt              -0.0161948684       -1.9341910160        1.9247995152
Pt               1.8718642575       -3.9377842116        1.8907852009
Pt               1.9124343011       -1.9387323552       -0.0132728088
Pt               0.0186198659       -3.7819722546        3.8557547178
Pt               1.9198936054       -1.9115050311        3.9194711107
Pt               0.0232596751        0.0232596751       -4.1269627244
Pt              -0.0018011830        1.9284981055       -1.9280266101
Pt               1.9284981055       -0.0018011830       -1.9280266101
Pt               1.9270878400        1.9270878400       -3.9329171249
Pt              -0.0120339653       -0.0120339653       -0.0193720691
Pt              -0.0108951957        1.9133155229        1.9117623282
Pt               1.9133155229       -0.0108951957        1.9117623282
Pt               1.9245684884        1.9245684884       -0.0087854683
Pt              -0.0003418411       -0.0003418411        4.1235900767
Pt               1.8996796251        1.8996796251        3.9353366420
Pt               0.0025456916        3.8213744609       -3.7824603937
Pt               1.9316360789        3.9437782376       -1.9136518078
Pt               0.0138842960        4.1237507410       -0.0068313367
Pt               1.9112103260        3.9219102639        1.9169930991
Pt              -0.0029722657        3.8039807338        3.7986924607
Pt               3.9362831725       -1.9201107972       -1.9015121493
Pt               3.7950133429       -3.8199925301        0.0011293437
Pt               3.9271042830       -1.9106655064        1.8945975899
Pt               3.8213744609        0.0025456916       -3.7824603937
Pt               3.9437782376        1.9316360789       -1.9136518078
Pt               4.1237507410        0.0138842960       -0.0068313367
Pt               3.9219102639        1.9112103260        1.9169930991
Pt               3.8039807338       -0.0029722657        3.7986924607
Pt               3.8057260990        3.8057260990        0.0077672245
H               -3.8746609513       -3.8746609513       -1.7769407678
End final coordinates



     Writing all to output data dir ./out/calc.save/ :
     XML data file, charge density, pseudopotentials, collected wavefunctions
 
     init_run     :     15.54s CPU     16.72s WALL (       1 calls)
     electrons    : 243038.17s CPU 248151.13s WALL (      27 calls)
     update_pot   :     62.01s CPU     69.30s WALL (      26 calls)
     forces       :    190.80s CPU    205.23s WALL (      27 calls)

     Called by init_run:
     wfcinit      :      8.74s CPU      9.37s WALL (       1 calls)
     wfcinit:atom :      0.05s CPU      0.08s WALL (       2 calls)
     wfcinit:wfcr :      8.37s CPU      8.92s WALL (       2 calls)
     potinit      :      3.58s CPU      3.88s WALL (       1 calls)
     hinit0       :      0.86s CPU      0.94s WALL (       1 calls)

     Called by electrons:
     c_bands      : 233255.03s CPU 237479.77s WALL (    1224 calls)
     sum_band     :   5864.95s CPU   6223.86s WALL (    1224 calls)
     v_of_rho     :   2788.79s CPU   3126.19s WALL (    1235 calls)
     v_h          :     38.94s CPU     42.53s WALL (    1235 calls)
     v_xc         :   2809.77s CPU   3151.29s WALL (    1262 calls)
     newd         :   1003.51s CPU   1147.88s WALL (    1235 calls)
     mix_rho      :    116.76s CPU    125.03s WALL (    1224 calls)

     Called by c_bands:
     init_us_2    :    254.00s CPU    257.21s WALL (    4952 calls)
     rcgdiagg     : 225009.01s CPU 228768.73s WALL (    2504 calls)
     wfcrot       :   8034.48s CPU   8465.46s WALL (    2420 calls)

     Called by sum_band:
     sum_band:wei :      2.06s CPU      2.09s WALL (    1224 calls)
     sum_band:loo :   4323.89s CPU   4534.49s WALL (    1224 calls)
     sum_band:buf :     49.05s CPU     49.68s WALL (    2448 calls)
     sum_band:ini :    127.23s CPU    128.69s WALL (    2448 calls)
     sum_band:cal :    729.98s CPU    735.56s WALL (    2448 calls)
     sum_band:bec :      5.74s CPU      5.81s WALL (    2448 calls)
     addusdens    :   1474.41s CPU   1617.05s WALL (    1224 calls)
                                        0.00s GPU  (    1224 calls)
     addusd:skk   :     38.98s CPU     70.65s WALL (    2448 calls)
                                        0.00s GPU  (    2448 calls)

     Called by *cgdiagg:
     h_psi        : 102674.29s CPU 105591.95s WALL ( 3000368 calls)
     s_psi        :  71298.47s CPU  71992.55s WALL ( 5998316 calls)

     Called by h_psi:
     h_psi:calbec :  39040.21s CPU  39405.37s WALL ( 3000368 calls)
     vloc_psi     :  27281.72s CPU  29485.96s WALL ( 3000368 calls)
     add_vuspsi   :  36217.55s CPU  36572.77s WALL ( 3000368 calls)
     hs_1psi      : 131816.63s CPU 134688.26s WALL ( 2997948 calls)
     s_1psi       :  72608.39s CPU  73302.07s WALL ( 2997948 calls)

     General routines
     calbec       :  76885.65s CPU  77616.12s WALL ( 6000980 calls)
     fft          :   1466.68s CPU   1706.29s WALL (   85741 calls)
     ffts         :     19.16s CPU     22.25s WALL (    3694 calls)
     fftw         :  17006.51s CPU  19192.66s WALL ( 7927480 calls)
     interpolate  :     63.12s CPU     72.03s WALL (    2470 calls)
 
     Parallel routines
 
     PWSCF        :   2d19h35m CPU   2d21h 1m WALL

 
   This run was terminated on:  12:52: 8  21Jan2025            

=------------------------------------------------------------------------------=
   JOB DONE.
=------------------------------------------------------------------------------=
